
Host: hrgrimsl-XPS-13-9370

Timers On : Fri Dec  7 10:17:36 2018
Timers Off: Fri Dec  7 10:17:45 2018

Wall Time:        9.00 seconds


***********************************************************
