
    -----------------------------------------------------------------------
          Psi4: An Open-Source Ab Initio Electronic Structure Package
                               Psi4 1.1rc1 

                         Git: Rev {HEAD} 6db9b1f 


    R. M. Parrish, L. A. Burns, D. G. A. Smith, A. C. Simmonett,
    A. E. DePrince III, E. G. Hohenstein, U. Bozkaya, A. Yu. Sokolov,
    R. Di Remigio, R. M. Richard, J. F. Gonthier, A. M. James,
    H. R. McAlexander, A. Kumar, M. Saitow, X. Wang, B. P. Pritchard,
    P. Verma, H. F. Schaefer III, K. Patkowski, R. A. King, E. F. Valeev,
    F. A. Evangelista, J. M. Turney, T. D. Crawford, and C. D. Sherrill,
    submitted.

    -----------------------------------------------------------------------


    Psi4 started on: Thursday, 06 December 2018 10:32AM

    Process ID:  29877
    PSIDATADIR: /home/hrgrimsl/psi4conda/share/psi4
    Memory:     500.0 MiB
    Threads:    1
    
  ==> Input File <==

--------------------------------------------------------------------------
# PYTHONPATH must include directory above plugin directory.
#     Define either externally or here, then import plugin.
sys.path.insert(0, '.')

import os

#Set this up like a dictionary
SI = {
'name': 'carbonyl',
'basis': 'sto-3g/sto-3g',
'frags': '1/3',
'methods': 'scf/scf',
'scratch': 'scr',
'envir': 'local'
}

SIname = './si2.txt'
os.system('rm -r -f '+str(SIname))
sifile = open(SIname, 'w')
sifile.write(SI['name']+'\n')
sifile.write(SI['frags']+'\n')
sifile.write(SI['methods']+'\n')
sifile.write(SI['basis']+'\n')
sifile.write(SI['scratch']+'\n')
sifile.write(SI['envir']+'\n')
sifile.close()
import scf_template

molecule {
0 1
   C       -5.81834        1.95784        0.00321
   C       -4.60398        1.03921        0.01221
   H       -6.56185        1.60995        0.72787
   H       -6.29444        1.95236       -0.98284
   H       -5.56211        2.99251        0.25102
   C       -3.28867        1.81755       -0.01279
   H       -4.65680        0.36214       -0.84887
   H       -4.63398        0.41213        0.91116
   C       -2.08978        0.87197       -0.03621
   H       -3.23017        2.46357        0.87255
   H       -3.25957        2.47726       -0.88863
   C       -0.76111        1.60655       -0.00038
   H       -2.11360        0.26269       -0.94636
   H       -2.12535        0.20437        0.83200
   C        0.47275        0.74064       -0.00346
   H        0.43687        0.04705        0.84038
   H        1.36383        1.36666        0.09514
   H        0.52803        0.18737       -0.94407
   O       -0.67576        2.83228        0.01829
}
optimize('scf_template', si=SIname)
--------------------------------------------------------------------------
gradient() will perform analytic gradient computation.
   => Loading Basis Set <=

    Name: STO-3G
    Role: ORBITAL
    Keyword: BASIS
    atoms 1-2, 6, 9, 12, 15             entry C          line    60 file /home/hrgrimsl/psi4conda/share/psi4/basis/sto-3g.gbs 
    atoms 3-5, 7-8, 10-11, 13-14, 16-18 entry H          line    18 file /home/hrgrimsl/psi4conda/share/psi4/basis/sto-3g.gbs 
    atoms 19                            entry O          line    80 file /home/hrgrimsl/psi4conda/share/psi4/basis/sto-3g.gbs 


			-----------------------------------------
			 OPTKING 2.0: for geometry optimizations 
			  - R.A. King,  Bethel University        
			-----------------------------------------

	Internal coordinates to be generated automatically.
	Detected frag 1 with atoms:  1 2 3 4 5 6 7 8 9 10 11 12 13 14 15 16 17 18 19
	---Fragment 1 Bond Connectivity---
	 1 : 2 3 4 5
	 2 : 1 6 7 8
	 3 : 1
	 4 : 1
	 5 : 1
	 6 : 2 9 10 11
	 7 : 2
	 8 : 2
	 9 : 6 12 13 14
	 10 : 6
	 11 : 6
	 12 : 9 15 19
	 13 : 9
	 14 : 9
	 15 : 12 16 17 18
	 16 : 15
	 17 : 15
	 18 : 15
	 19 : 12

	---Fragment 1 Geometry and Gradient---
	 C          -6.4586535891        0.7514517817        0.0105553130
	 C          -4.1638457623       -0.9845073358        0.0275628482
	 H          -7.8636838661        0.0940349573        1.3799642525
	 H          -7.3583522009        0.7410960825       -1.8528091403
	 H          -5.9744490620        2.7066947196        0.4788483460
	 C          -1.6782700825        0.4863421025       -0.0196803051
	 H          -4.2636610967       -2.2639842086       -1.5996425303
	 H          -4.2205375463       -2.1695167992        1.7263321554
	 C           0.5873036810       -1.3005451343       -0.0639376911
	 H          -1.5677211037        1.7071429788        1.6533698294
	 H          -1.6232790520        1.7330133296       -1.6747780413
	 C           3.0981261020        0.0876098884        0.0037711962
	 H           0.5422904045       -2.4519174725       -1.7838719310
	 H           0.5200861224       -2.5621263006        1.5767414347
	 C           5.4297835883       -1.5487228673       -0.0020491603
	 H           5.3619802146       -2.8594180158        1.5925773397
	 H           7.1136807508       -0.3657165136        0.1842778364
	 H           5.5342476489       -2.5942516448       -1.7795444581
	 O           3.2594142274        2.4039039013        0.0390523831
	             0.0283126685       -0.0115202064        0.0019342339
	            -0.0013847977        0.0203110507       -0.0027665988
	            -0.0039310351       -0.0045891496        0.0061653681
	            -0.0032207117       -0.0033381393       -0.0076240102
	             0.0010320362        0.0082268363        0.0009086034
	            -0.0022355509       -0.0164076056        0.0002343720
	            -0.0025375353       -0.0040227246       -0.0067662141
	            -0.0027329366       -0.0037122785        0.0065242074
	             0.0045781825        0.0147066569        0.0001632143
	             0.0001697047        0.0051944979        0.0067269399
	            -0.0001200601        0.0052685001       -0.0058032272
	            -0.0019576731       -0.0439044269        0.0006064384
	             0.0007799796        0.0003198664       -0.0073014957
	             0.0010771809       -0.0004426770        0.0075460652
	            -0.0239128658        0.0121549653       -0.0023120192
	            -0.0019090351        0.0000711453        0.0076848884
	             0.0052977997        0.0051828385        0.0015699308
	            -0.0015469990        0.0011989799       -0.0071567910
	             0.0042416481        0.0153018707       -0.0003339057

	Previous optimization step data not found.  Starting new optimization.

	---Fragment 1 Intrafragment Coordinates---
	 - Coordinate -           - BOHR/RAD -       - ANG/DEG -
	 R(1,2)           =         2.877497	       1.522706
	 R(1,3)           =         2.069200	       1.094973
	 R(1,4)           =         2.069225	       1.094987
	 R(1,5)           =         2.068025	       1.094352
	 R(2,6)           =         2.888549	       1.528554
	 R(2,7)           =         2.072395	       1.096664
	 R(2,8)           =         2.072023	       1.096467
	 R(6,9)           =         2.885784	       1.527091
	 R(6,10)          =         2.074047	       1.097539
	 R(6,11)          =         2.072815	       1.096886
	 R(9,12)          =         2.869806	       1.518636
	 R(9,13)          =         2.070231	       1.095519
	 R(9,14)          =         2.070733	       1.095784
	 R(12,15)         =         2.848551	       1.507389
	 R(12,19)         =         2.322171	       1.228840
	 R(15,16)         =         2.065273	       1.092895
	 R(15,17)         =         2.066333	       1.093456
	 R(15,18)         =         2.064832	       1.092662
	 B(1,2,6)         =         1.959461	     112.268864
	 B(1,2,7)         =         1.906477	     109.233110
	 B(1,2,8)         =         1.905037	     109.150571
	 B(2,1,3)         =         1.924031	     110.238868
	 B(2,1,4)         =         1.927361	     110.429635
	 B(2,1,5)         =         1.963105	     112.477630
	 B(2,6,9)         =         1.939610	     111.131448
	 B(2,6,10)        =         1.909634	     109.413979
	 B(2,6,11)        =         1.919990	     110.007344
	 B(3,1,4)         =         1.874584	     107.405766
	 B(3,1,5)         =         1.885475	     108.029775
	 B(4,1,5)         =         1.886464	     108.086439
	 B(6,2,7)         =         1.920882	     110.058434
	 B(6,2,8)         =         1.905161	     109.157680
	 B(6,9,12)        =         1.968170	     112.767848
	 B(6,9,13)        =         1.917761	     109.879623
	 B(6,9,14)        =         1.917299	     109.853133
	 B(7,2,8)         =         1.864323	     106.817823
	 B(9,6,10)        =         1.912395	     109.572150
	 B(9,6,11)        =         1.917011	     109.836624
	 B(9,12,15)       =         2.024433	     115.991483
	 B(9,12,19)       =         2.145531	     122.929881
	 B(10,6,11)       =         1.863638	     106.778613
	 B(12,9,13)       =         1.883511	     107.917256
	 B(12,9,14)       =         1.880109	     107.722325
	 B(12,15,16)      =         1.913582	     109.640159
	 B(12,15,17)      =         1.915571	     109.754120
	 B(12,15,18)      =         1.911383	     109.514201
	 B(13,9,14)       =         1.895167	     108.585047
	 B(15,12,19)      =         2.113168	     121.075605
	 B(16,15,17)      =         1.897020	     108.691260
	 B(16,15,18)      =         1.923016	     110.180678
	 B(17,15,18)      =         1.903172	     109.043702
	 D(1,2,6,9)       =        -3.118384	    -178.670243
	 D(1,2,6,10)      =         1.050652	      60.197921
	 D(1,2,6,11)      =        -0.991463	     -56.806627
	 D(2,6,9,12)      =        -3.097951	    -177.499510
	 D(2,6,9,13)      =         1.083268	      62.066658
	 D(2,6,9,14)      =        -1.000632	     -57.332006
	 D(3,1,2,6)       =        -2.375667	    -136.115684
	 D(3,1,2,7)       =         1.771746	     101.513540
	 D(3,1,2,8)       =        -0.260830	     -14.944447
	 D(4,1,2,6)       =         1.838852	     105.358440
	 D(4,1,2,7)       =        -0.296921	     -17.012336
	 D(4,1,2,8)       =        -2.329497	    -133.470323
	 D(5,1,2,6)       =        -0.270207	     -15.481727
	 D(5,1,2,7)       =        -2.405980	    -137.852502
	 D(5,1,2,8)       =         1.844630	     105.689510
	 D(6,9,12,15)     =         3.128828	     179.268641
	 D(6,9,12,19)     =        -0.023724	      -1.359265
	 D(7,2,6,9)       =        -0.990797	     -56.768490
	 D(7,2,6,10)      =        -3.104946	    -177.900326
	 D(7,2,6,11)      =         1.136124	      65.095126
	 D(8,2,6,9)       =         1.050035	      60.162602
	 D(8,2,6,10)      =        -1.064114	     -60.969234
	 D(8,2,6,11)      =        -3.106228	    -177.973781
	 D(9,12,15,16)    =        -0.989603	     -56.700057
	 D(9,12,15,17)    =        -3.072145	    -176.020936
	 D(9,12,15,18)    =         1.122306	      64.303382
	 D(10,6,9,12)     =        -0.985422	     -56.460543
	 D(10,6,9,13)     =        -3.087389	    -176.894374
	 D(10,6,9,14)     =         1.111896	      63.706962
	 D(11,6,9,12)     =         1.056579	      60.537520
	 D(11,6,9,13)     =        -1.045388	     -59.896312
	 D(11,6,9,14)     =        -3.129288	    -179.294975
	 D(13,9,12,15)    =        -1.032870	     -59.179070
	 D(13,9,12,19)    =         2.097764	     120.193024
	 D(14,9,12,15)    =         1.010265	      57.883896
	 D(14,9,12,19)    =        -2.142287	    -122.744010
	 D(16,15,12,19)   =         2.162730	     123.915275
	 D(17,15,12,19)   =         0.080187	       4.594396
	 D(18,15,12,19)   =        -2.008547	    -115.081286

	Current energy   :      -305.2690874348

	Generating empirical Hessian (Schlegel '84) for each fragment.
	Taking RFO optimization step.
	Going to follow RFO solution 1.
	Using RFO vector 1.
	Norm of target step-size    0.26914
	Projected energy change by RFO approximation:        -0.0101987215

	Back-transformation to cartesian coordinates...
	Successfully converged to displaced geometry.

	--- Internal Coordinate Step in ANG or DEG, aJ/ANG or AJ/DEG ---
	 ---------------------------------------------------------------------------
	   Coordinate                Previous        Force       Change         New 
	   ----------                --------       ------       ------       ------
	    1 R(1,2)          =      1.522706     0.201654     0.041396     1.564101
	    2 R(1,3)          =      1.094973    -0.067620    -0.012260     1.082713
	    3 R(1,4)          =      1.094987    -0.068238    -0.012373     1.082614
	    4 R(1,5)          =      1.094352    -0.067768    -0.012263     1.082089
	    5 R(2,6)          =      1.528554     0.116057     0.024251     1.552805
	    6 R(2,7)          =      1.096664    -0.065238    -0.011892     1.084772
	    7 R(2,8)          =      1.096467    -0.062176    -0.011327     1.085140
	    8 R(6,9)          =      1.527091     0.109831     0.022848     1.549939
	    9 R(6,10)         =      1.097539    -0.069971    -0.012790     1.084748
	   10 R(6,11)         =      1.096886    -0.064256    -0.011721     1.085165
	   11 R(9,12)         =      1.518636     0.182447     0.036991     1.555627
	   12 R(9,13)         =      1.095519    -0.048371    -0.008785     1.086734
	   13 R(9,14)         =      1.095784    -0.051192    -0.009306     1.086479
	   14 R(12,15)        =      1.507389     0.236903     0.046397     1.553785
	   15 R(12,19)        =      1.228840    -0.128134    -0.008873     1.219967
	   16 R(15,16)        =      1.092895    -0.049030    -0.008831     1.084065
	   17 R(15,17)        =      1.093456    -0.061182    -0.011039     1.082417
	   18 R(15,18)        =      1.092662    -0.045111    -0.008119     1.084543
	   19 B(1,2,6)        =    112.268864     0.000345     1.315131   113.583995
	   20 B(1,2,7)        =    109.233110     0.000008     0.397639   109.630749
	   21 B(1,2,8)        =    109.150571     0.000014     0.935227   110.085798
	   22 B(2,1,3)        =    110.238868     0.000298     1.512191   111.751059
	   23 B(2,1,4)        =    110.429635     0.000261     1.207912   111.637546
	   24 B(2,1,5)        =    112.477630    -0.000252    -1.459798   111.017833
	   25 B(2,6,9)        =    111.131448     0.000531     1.848042   112.979489
	   26 B(2,6,10)       =    109.413979    -0.000134    -0.165180   109.248799
	   27 B(2,6,11)       =    110.007344    -0.000163    -0.543883   109.463461
	   28 B(3,1,4)        =    107.405766    -0.000159    -0.073029   107.332737
	   29 B(3,1,5)        =    108.029775    -0.000078    -0.561686   107.468089
	   30 B(4,1,5)        =    108.086439    -0.000080    -0.682275   107.404165
	   31 B(6,2,7)        =    110.058434    -0.000251    -1.620013   108.438421
	   32 B(6,2,8)        =    109.157680    -0.000154    -0.598595   108.559085
	   33 B(6,9,12)       =    112.767848     0.000036     0.592346   113.360194
	   34 B(6,9,13)       =    109.879623     0.000022     0.042466   109.922089
	   35 B(6,9,14)       =    109.853133     0.000002     0.062197   109.915330
	   36 B(7,2,8)        =    106.817823     0.000024    -0.548883   106.268940
	   37 B(9,6,10)       =    109.572150    -0.000168    -0.450820   109.121330
	   38 B(9,6,11)       =    109.836624    -0.000188    -0.755579   109.081045
	   39 B(9,12,15)      =    115.991483    -0.000104    -0.297586   115.693898
	   40 B(9,12,19)      =    122.929881    -0.000227    -0.658758   122.271123
	   41 B(10,6,11)      =    106.778613     0.000102    -0.023522   106.755090
	   42 B(12,9,13)      =    107.917256     0.000041     0.531172   108.448428
	   43 B(12,9,14)      =    107.722325     0.000082     0.843688   108.566013
	   44 B(12,15,16)     =    109.640159     0.000319     1.331377   110.971536
	   45 B(12,15,17)     =    109.754120     0.000076     0.625474   110.379594
	   46 B(12,15,18)     =    109.514201     0.000310     1.138210   110.652411
	   47 B(13,9,14)      =    108.585047    -0.000192    -2.209215   106.375832
	   48 B(15,12,19)     =    121.075605     0.000331     0.959047   122.034652
	   49 B(16,15,17)     =    108.691260    -0.000084    -0.009879   108.681381
	   50 B(16,15,18)     =    110.180678    -0.000477    -2.651124   107.529554
	   51 B(17,15,18)     =    109.043702    -0.000150    -0.508541   108.535161
	   52 D(1,2,6,9)      =   -178.670243     0.000008     0.564736  -178.105507
	   53 D(1,2,6,10)     =     60.197921    -0.000002     0.031751    60.229672
	   54 D(1,2,6,11)     =    -56.806627     0.000009     0.468033   -56.338594
	   55 D(2,6,9,12)     =   -177.499510    -0.000008    -0.707211  -178.206721
	   56 D(2,6,9,13)     =     62.066658    -0.000029    -1.819642    60.247016
	   57 D(2,6,9,14)     =    -57.332006     0.000022     0.818321   -56.513685
	   58 D(3,1,2,6)      =   -136.115684    -0.000005    -2.648947  -138.764631
	   59 D(3,1,2,7)      =    101.513540     0.000014    -1.752888    99.760652
	   60 D(3,1,2,8)      =    -14.944447     0.000004    -1.854274   -16.798722
	   61 D(4,1,2,6)      =    105.358440    -0.000040    -4.344504   101.013936
	   62 D(4,1,2,7)      =    -17.012336    -0.000021    -3.448445   -20.460781
	   63 D(4,1,2,8)      =   -133.470323    -0.000030    -3.549831  -137.020155
	   64 D(5,1,2,6)      =    -15.481727    -0.000019    -3.314939   -18.796666
	   65 D(5,1,2,7)      =   -137.852502    -0.000000    -2.418880  -140.271382
	   66 D(5,1,2,8)      =    105.689510    -0.000010    -2.520267   103.169243
	   67 D(6,9,12,15)    =    179.268641    -0.000001    -0.044299   179.224342
	   68 D(6,9,12,19)    =     -1.359265     0.000004     0.787826    -0.571440
	   69 D(7,2,6,9)      =    -56.768490     0.000023     0.801003   -55.967488
	   70 D(7,2,6,10)     =   -177.900326     0.000013     0.268018  -177.632309
	   71 D(7,2,6,11)     =     65.095126     0.000025     0.704299    65.799425
	   72 D(8,2,6,9)      =     60.162602    -0.000024    -1.077975    59.084627
	   73 D(8,2,6,10)     =    -60.969234    -0.000034    -1.610960   -62.580194
	   74 D(8,2,6,11)     =   -177.973781    -0.000022    -1.174678  -179.148460
	   75 D(9,12,15,16)   =    -56.700057     0.000025     0.994939   -55.705118
	   76 D(9,12,15,17)   =   -176.020936    -0.000007    -0.236406  -176.257343
	   77 D(9,12,15,18)   =     64.303382    -0.000019    -0.721242    63.582140
	   78 D(10,6,9,12)    =    -56.460543     0.000007    -0.009547   -56.470090
	   79 D(10,6,9,13)    =   -176.894374    -0.000014    -1.121978  -178.016352
	   80 D(10,6,9,14)    =     63.706962     0.000037     1.515985    65.222947
	   81 D(11,6,9,12)    =     60.537520    -0.000012    -0.726186    59.811334
	   82 D(11,6,9,13)    =    -59.896312    -0.000033    -1.838617   -61.734929
	   83 D(11,6,9,14)    =   -179.294975     0.000017     0.799345  -178.495630
	   84 D(13,9,12,15)   =    -59.179070     0.000018     0.771654   -58.407416
	   85 D(13,9,12,19)   =    120.193024     0.000022     1.603778   121.796802
	   86 D(14,9,12,15)   =     57.883896    -0.000019    -1.104289    56.779607
	   87 D(14,9,12,19)   =   -122.744010    -0.000015    -0.272165  -123.016175
	   88 D(16,15,12,19)  =    123.915275     0.000022     0.175918   124.091193
	   89 D(17,15,12,19)  =      4.594396    -0.000010    -1.055428     3.538968
	   90 D(18,15,12,19)  =   -115.081286    -0.000022    -1.540263  -116.621549
	 ---------------------------------------------------------------------------
	Successfully symmetrized geometry.

  ==> Convergence Check <==

  Measures of convergence in internal coordinates in au.
  Criteria marked as inactive (o), active & met (*), and active & unmet ( ).
  --------------------------------------------------------------------------------------------- ~
   Step     Total Energy     Delta E     MAX Force     RMS Force      MAX Disp      RMS Disp    ~
  --------------------------------------------------------------------------------------------- ~
    Convergence Criteria    1.00e-06 *    3.00e-04 *             o    1.20e-03 *             o  ~
  --------------------------------------------------------------------------------------------- ~
      1    -305.26908743   -3.05e+02      2.88e-02      6.24e-03 o    8.77e-02      2.84e-02 o  ~
  ---------------------------------------------------------------------------------------------

	Writing optimization data to binary file.
	Structure for next step:
	Cartesian Geometry (in Angstrom)
	    C    -3.5012427020   0.4332119798   0.0275600171
	    C    -2.2531688319  -0.5094110685   0.0411863255
	    H    -4.2694826673   0.0916479222   0.7097691823
	    H    -3.9470210791   0.4911342401  -0.9573154548
	    H    -3.2309415159   1.4393101929   0.3201696428
	    C    -0.8998457817   0.2510233158   0.0029813225
	    H    -2.2938813165  -1.1803368653  -0.8102426895
	    H    -2.2709755598  -1.1385778479   0.9251329632
	    C     0.3260786201  -0.6967748821  -0.0301806276
	    H    -0.8271953766   0.8956475103   0.8723834763
	    H    -0.8725274828   0.8969701649  -0.8685629468
	    C     1.6877025778   0.0554985247  -0.0239007792
	    H     0.2844495175  -1.3251793661  -0.9158246866
	    H     0.2979155641  -1.3682778743   0.8234742997
	    C     2.9544600303  -0.8441654535  -0.0373030648
	    H     2.9422006327  -1.5438501441   0.7906385599
	    H     3.8482161259  -0.2377960120   0.0344109228
	    H     3.0030008970  -1.4228057509  -0.9533016868
	    O     1.7590150755   1.2732433819  -0.0057177854
			--------------------------
			 OPTKING Finished Execution 
			--------------------------

    Structure for next step:
    Molecular point group: c1
    Full point group: C1

    Geometry (in Angstrom), charge = 0, multiplicity = 1:

    C           -3.506332724364     0.431199290753     0.031125196776
    C           -2.258258854250    -0.511423757612     0.044751505185
    H           -4.274572689627     0.089635233149     0.713334362018
    H           -3.952111101420     0.489121551019    -0.953750275143
    H           -3.236031538222     1.437297503862     0.323734822469
    C           -0.904935804084     0.249010626714     0.006546502210
    H           -2.298971338844    -1.182349554331    -0.806677509787
    H           -2.276065582193    -1.140590536935     0.928698142845
    C            0.320988597714    -0.698787571158    -0.026615447867
    H           -0.832285398929     0.893634821208     0.875948656003
    H           -0.877617505143     0.894957475853    -0.864997767125
    C            1.682612555432     0.053485835586    -0.020335599508
    H            0.279359495189    -1.327192055153    -0.912259506910
    H            0.292825541704    -1.370290563378     0.827039479378
    C            2.949370007919    -0.846178142586    -0.033737885069
    H            2.937110610397    -1.545862833224     0.794203739572
    H            3.843126103562    -0.239808701055     0.037976102439
    H            2.997910874623    -1.424818440017    -0.949736507070
    O            1.753925053168     1.271230692782    -0.002152605730

gradient() will perform analytic gradient computation.
   => Loading Basis Set <=

    Name: STO-3G
    Role: ORBITAL
    Keyword: BASIS
    atoms 1-2, 6, 9, 12, 15             entry C          line    60 file /home/hrgrimsl/psi4conda/share/psi4/basis/sto-3g.gbs 
    atoms 3-5, 7-8, 10-11, 13-14, 16-18 entry H          line    18 file /home/hrgrimsl/psi4conda/share/psi4/basis/sto-3g.gbs 
    atoms 19                            entry O          line    80 file /home/hrgrimsl/psi4conda/share/psi4/basis/sto-3g.gbs 


			-----------------------------------------
			 OPTKING 2.0: for geometry optimizations 
			  - R.A. King,  Bethel University        
			-----------------------------------------

	Previous internal coordinate definitions found.
	---Fragment 1 Geometry and Gradient---
	 C          -6.6260085798        0.8148485682        0.0588180977
	 C          -4.2674907717       -0.9664508397        0.0845680888
	 H          -8.0777717185        0.1693860425        1.3480065854
	 H          -7.4684076284        0.9243057771       -1.8023268192
	 H          -6.1152133646        2.7160986538        0.6117701541
	 C          -1.7100808376        0.4705618887        0.0123710963
	 H          -4.3444262178       -2.2343168510       -1.5243995711
	 H          -4.3011406108       -2.1554037446        1.7549851501
	 C           0.6065805415       -1.3205171346       -0.0502959074
	 H          -1.5727914684        1.6887250749        1.6553030663
	 H          -1.6584567341        1.6912245299       -1.6346088854
	 C           3.1796769175        0.1010735812       -0.0384287138
	 H           0.5279129385       -2.5080295100       -1.7239206302
	 H           0.5533600785       -2.5894738873        1.5628781171
	 C           5.5735015795       -1.5990449491       -0.0637553631
	 H           5.5503346756       -2.9212573938        1.5008275615
	 H           7.2624558299       -0.4531727693        0.0717644332
	 H           5.6652305238       -2.6925166407       -1.7947418968
	 O           3.3144380081        2.4022778611       -0.0040678353
	            -0.0092576740        0.0038234940       -0.0001651550
	             0.0009624201       -0.0052303995        0.0011441888
	             0.0004059753        0.0036152689       -0.0019932325
	            -0.0014209943        0.0007062539        0.0037253045
	            -0.0018173812       -0.0027446712       -0.0020784957
	             0.0007059967        0.0014960599        0.0007104013
	             0.0019092357        0.0018083277        0.0028141530
	             0.0011710267       -0.0001243183       -0.0036729489
	             0.0024796522       -0.0017091808        0.0003962603
	            -0.0004645539       -0.0015479319       -0.0028529004
	            -0.0001658215       -0.0013576295        0.0026670881
	             0.0003148702       -0.0000302972       -0.0011122152
	            -0.0004635254        0.0008038200        0.0024603955
	            -0.0008117065        0.0007738923       -0.0026889426
	             0.0049666584       -0.0018528479        0.0006403847
	             0.0019496409        0.0002624923       -0.0025079998
	            -0.0012539739       -0.0027694700       -0.0001410710
	             0.0015714805        0.0001355737        0.0024352592
	            -0.0007813262        0.0039415636        0.0002195258

	---Fragment 1 Intrafragment Coordinates---
	 - Coordinate -           - BOHR/RAD -       - ANG/DEG -
	 R(1,2)           =         2.955723	       1.564101
	 R(1,3)           =         2.046032	       1.082713
	 R(1,4)           =         2.045844	       1.082614
	 R(1,5)           =         2.044852	       1.082089
	 R(2,6)           =         2.934376	       1.552805
	 R(2,7)           =         2.049922	       1.084772
	 R(2,8)           =         2.050618	       1.085140
	 R(6,9)           =         2.928961	       1.549939
	 R(6,10)          =         2.049877	       1.084748
	 R(6,11)          =         2.050665	       1.085165
	 R(9,12)          =         2.939708	       1.555627
	 R(9,13)          =         2.053629	       1.086734
	 R(9,14)          =         2.053147	       1.086479
	 R(12,15)         =         2.936229	       1.553785
	 R(12,19)         =         2.305403	       1.219967
	 R(15,16)         =         2.048585	       1.084065
	 R(15,17)         =         2.045472	       1.082417
	 R(15,18)         =         2.049490	       1.084543
	 B(1,2,6)         =         1.982415	     113.583995
	 B(1,2,7)         =         1.913418	     109.630749
	 B(1,2,8)         =         1.921360	     110.085798
	 B(2,1,3)         =         1.950424	     111.751059
	 B(2,1,4)         =         1.948443	     111.637546
	 B(2,1,5)         =         1.937627	     111.017833
	 B(2,6,9)         =         1.971864	     112.979489
	 B(2,6,10)        =         1.906751	     109.248799
	 B(2,6,11)        =         1.910498	     109.463461
	 B(3,1,4)         =         1.873310	     107.332737
	 B(3,1,5)         =         1.875672	     107.468089
	 B(4,1,5)         =         1.874556	     107.404165
	 B(6,2,7)         =         1.892607	     108.438421
	 B(6,2,8)         =         1.894713	     108.559085
	 B(6,9,12)        =         1.978509	     113.360194
	 B(6,9,13)        =         1.918502	     109.922089
	 B(6,9,14)        =         1.918384	     109.915330
	 B(7,2,8)         =         1.854743	     106.268940
	 B(9,6,10)        =         1.904526	     109.121330
	 B(9,6,11)        =         1.903823	     109.081045
	 B(9,12,15)       =         2.019239	     115.693898
	 B(9,12,19)       =         2.134034	     122.271123
	 B(10,6,11)       =         1.863228	     106.755090
	 B(12,9,13)       =         1.892782	     108.448428
	 B(12,9,14)       =         1.894834	     108.566013
	 B(12,15,16)      =         1.936819	     110.971536
	 B(12,15,17)      =         1.926487	     110.379594
	 B(12,15,18)      =         1.931249	     110.652411
	 B(13,9,14)       =         1.856609	     106.375832
	 B(15,12,19)      =         2.129906	     122.034652
	 B(16,15,17)      =         1.896848	     108.681381
	 B(16,15,18)      =         1.876745	     107.529554
	 B(17,15,18)      =         1.894296	     108.535161
	 D(1,2,6,9)       =        -3.108528	    -178.105507
	 D(1,2,6,10)      =         1.051206	      60.229672
	 D(1,2,6,11)      =        -0.983294	     -56.338594
	 D(2,6,9,12)      =        -3.110294	    -178.206721
	 D(2,6,9,13)      =         1.051509	      60.247016
	 D(2,6,9,14)      =        -0.986350	     -56.513685
	 D(3,1,2,6)       =        -2.421900	    -138.764631
	 D(3,1,2,7)       =         1.741152	      99.760652
	 D(3,1,2,8)       =        -0.293193	     -16.798722
	 D(4,1,2,6)       =         1.763026	     101.013936
	 D(4,1,2,7)       =        -0.357108	     -20.460781
	 D(4,1,2,8)       =        -2.391453	    -137.020155
	 D(5,1,2,6)       =        -0.328064	     -18.796666
	 D(5,1,2,7)       =        -2.448197	    -140.271382
	 D(5,1,2,8)       =         1.800643	     103.169243
	 D(6,9,12,15)     =         3.128055	     179.224342
	 D(6,9,12,19)     =        -0.009974	      -0.571440
	 D(7,2,6,9)       =        -0.976817	     -55.967488
	 D(7,2,6,10)      =        -3.100269	    -177.632309
	 D(7,2,6,11)      =         1.148417	      65.799425
	 D(8,2,6,9)       =         1.031221	      59.084627
	 D(8,2,6,10)      =        -1.092230	     -62.580194
	 D(8,2,6,11)      =        -3.126730	    -179.148460
	 D(9,12,15,16)    =        -0.972238	     -55.705118
	 D(9,12,15,17)    =        -3.076271	    -176.257343
	 D(9,12,15,18)    =         1.109718	      63.582140
	 D(10,6,9,12)     =        -0.985589	     -56.470090
	 D(10,6,9,13)     =        -3.106971	    -178.016352
	 D(10,6,9,14)     =         1.138355	      65.222947
	 D(11,6,9,12)     =         1.043905	      59.811334
	 D(11,6,9,13)     =        -1.077478	     -61.734929
	 D(11,6,9,14)     =        -3.115336	    -178.495630
	 D(13,9,12,15)    =        -1.019402	     -58.407416
	 D(13,9,12,19)    =         2.125755	     121.796802
	 D(14,9,12,15)    =         0.990991	      56.779607
	 D(14,9,12,19)    =        -2.147037	    -123.016175
	 D(16,15,12,19)   =         2.165800	     124.091193
	 D(17,15,12,19)   =         0.061767	       3.538968
	 D(18,15,12,19)   =        -2.035430	    -116.621549

	Current energy   :      -305.2727323273

	Energy change for the previous step:
		Projected    :        -0.0101987215
		Actual       :        -0.0036448924

	Performing BFGS update.
	Previous computed or guess Hessian on step 1.
	Steps to be used in Hessian update: 1
	Taking RFO optimization step.
	Going to follow RFO solution 1.
	Using RFO vector 1.
	Norm of target step-size    0.42859
	Projected energy change by RFO approximation:        -0.0025376122

	Back-transformation to cartesian coordinates...
	Could not converge backtransformation.
	Using first guess instead.

	--- Internal Coordinate Step in ANG or DEG, aJ/ANG or AJ/DEG ---
	 ---------------------------------------------------------------------------
	   Coordinate                Previous        Force       Change         New 
	   ----------                --------       ------       ------       ------
	    1 R(1,2)          =      1.564101    -0.106331    -0.014275     1.549826
	    2 R(1,3)          =      1.082713     0.022117     0.010704     1.093417
	    3 R(1,4)          =      1.082614     0.022789     0.011433     1.094046
	    4 R(1,5)          =      1.082089     0.029395     0.011640     1.093729
	    5 R(2,6)          =      1.552805    -0.050257    -0.006645     1.546160
	    6 R(2,7)          =      1.084772     0.028003     0.003266     1.088038
	    7 R(2,8)          =      1.085140     0.024214     0.002921     1.088061
	    8 R(6,9)          =      1.549939    -0.054239    -0.007173     1.542766
	    9 R(6,10)         =      1.084748     0.026673     0.003123     1.087871
	   10 R(6,11)         =      1.085165     0.024340     0.002959     1.088124
	   11 R(9,12)         =      1.555627    -0.047539    -0.005189     1.550438
	   12 R(9,13)         =      1.086734     0.020203     0.002648     1.089382
	   13 R(9,14)         =      1.086479     0.021173     0.002942     1.089421
	   14 R(12,15)        =      1.553785    -0.068709    -0.007786     1.545999
	   15 R(12,19)        =      1.219967    -0.032065    -0.001585     1.218382
	   16 R(15,16)        =      1.084065     0.017358     0.002496     1.086561
	   17 R(15,17)        =      1.082417     0.021389     0.003151     1.085568
	   18 R(15,18)        =      1.084543     0.016962     0.002736     1.087279
	   19 B(1,2,6)        =    113.583995    -0.000363    -1.039491   112.544504
	   20 B(1,2,7)        =    109.630749     0.000044    -0.178642   109.452108
	   21 B(1,2,8)        =    110.085798     0.000007    -0.369833   109.715965
	   22 B(2,1,3)        =    111.751059    -0.000267    -1.040784   110.710275
	   23 B(2,1,4)        =    111.637546    -0.000219    -0.739104   110.898443
	   24 B(2,1,5)        =    111.017833    -0.000021    -0.347887   110.669946
	   25 B(2,6,9)        =    112.979489    -0.000358    -0.930175   112.049315
	   26 B(2,6,10)       =    109.248799     0.000121     0.323227   109.572026
	   27 B(2,6,11)       =    109.463461     0.000101     0.130232   109.593693
	   28 B(3,1,4)        =    107.332737     0.000242     0.922598   108.255335
	   29 B(3,1,5)        =    107.468089     0.000156     0.658390   108.126480
	   30 B(4,1,5)        =    107.404165     0.000145     0.671919   108.076084
	   31 B(6,2,7)        =    108.438421     0.000163     0.500149   108.938569
	   32 B(6,2,8)        =    108.559085     0.000179     0.569468   109.128553
	   33 B(6,9,12)       =    113.360194    -0.000284    -0.826616   112.533578
	   34 B(6,9,13)       =    109.922089     0.000090     0.295692   110.217781
	   35 B(6,9,14)       =    109.915330     0.000107     0.337316   110.252646
	   36 B(7,2,8)        =    106.268940    -0.000004     0.628880   106.897819
	   37 B(9,6,10)       =    109.121330     0.000087     0.103857   109.225187
	   38 B(9,6,11)       =    109.081045     0.000102     0.088460   109.169505
	   39 B(9,12,15)      =    115.693898    -0.000225    -0.500953   115.192945
	   40 B(9,12,19)      =    122.271123     0.000201     0.419283   122.690406
	   41 B(10,6,11)      =    106.755090    -0.000036     0.348245   107.103335
	   42 B(12,9,13)      =    108.448428     0.000061     0.003810   108.452238
	   43 B(12,9,14)      =    108.566013     0.000041    -0.077076   108.488937
	   44 B(12,15,16)     =    110.971536    -0.000197    -0.632743   110.338793
	   45 B(12,15,17)     =    110.379594    -0.000098    -0.287113   110.092481
	   46 B(12,15,18)     =    110.652411    -0.000153    -0.462533   110.189877
	   47 B(13,9,14)      =    106.375832     0.000001     0.324176   106.700008
	   48 B(15,12,19)     =    122.034652     0.000024     0.072713   122.107366
	   49 B(16,15,17)     =    108.681381     0.000148     0.524842   109.206223
	   50 B(16,15,18)     =    107.529554     0.000183     0.451246   107.980800
	   51 B(17,15,18)     =    108.535161     0.000135     0.452755   108.987916
	   52 D(1,2,6,9)      =   -178.105507    -0.000004    -0.487357  -178.592864
	   53 D(1,2,6,10)     =     60.229672     0.000006    -0.225394    60.004278
	   54 D(1,2,6,11)     =    -56.338594    -0.000013    -0.906966   -57.245559
	   55 D(2,6,9,12)     =   -178.206721    -0.000001    -0.943523  -179.150245
	   56 D(2,6,9,13)     =     60.247016     0.000011    -0.593800    59.653216
	   57 D(2,6,9,14)     =    -56.513685    -0.000016    -1.368337   -57.882022
	   58 D(3,1,2,6)      =   -138.764631    -0.000012    -7.780599  -146.545230
	   59 D(3,1,2,7)      =     99.760652    -0.000010    -7.590744    92.169908
	   60 D(3,1,2,8)      =    -16.798722    -0.000016    -8.033595   -24.832317
	   61 D(4,1,2,6)      =    101.013936    -0.000006    -7.746961    93.266975
	   62 D(4,1,2,7)      =    -20.460781    -0.000004    -7.557107   -28.017887
	   63 D(4,1,2,8)      =   -137.020155    -0.000010    -7.999958  -145.020112
	   64 D(5,1,2,6)      =    -18.796666    -0.000011    -7.872379   -26.669045
	   65 D(5,1,2,7)      =   -140.271382    -0.000010    -7.682525  -147.953907
	   66 D(5,1,2,8)      =    103.169243    -0.000015    -8.125376    95.043868
	   67 D(6,9,12,15)    =    179.224342     0.000004     1.305188   180.529530
	   68 D(6,9,12,19)    =     -0.571440    -0.000001     0.013182    -0.558257
	   69 D(7,2,6,9)      =    -55.967488    -0.000019    -1.047972   -57.015460
	   70 D(7,2,6,10)     =   -177.632309    -0.000010    -0.786009  -178.418318
	   71 D(7,2,6,11)     =     65.799425    -0.000029    -1.467580    64.331845
	   72 D(8,2,6,9)      =     59.084627     0.000021     0.276579    59.361207
	   73 D(8,2,6,10)     =    -62.580194     0.000031     0.538543   -62.041651
	   74 D(8,2,6,11)     =   -179.148460     0.000011    -0.143029  -179.291489
	   75 D(9,12,15,16)   =    -55.705118    -0.000004    -1.301455   -57.006572
	   76 D(9,12,15,17)   =   -176.257343    -0.000002    -1.358060  -177.615403
	   77 D(9,12,15,18)   =     63.582140    -0.000004    -1.439362    62.142778
	   78 D(10,6,9,12)    =    -56.470090    -0.000006    -1.078015   -57.548105
	   79 D(10,6,9,13)    =   -178.016352     0.000006    -0.728292  -178.744644
	   80 D(10,6,9,14)    =     65.222947    -0.000021    -1.502829    63.720118
	   81 D(11,6,9,12)    =     59.811334     0.000008    -0.552694    59.258640
	   82 D(11,6,9,13)    =    -61.734929     0.000020    -0.202971   -61.937899
	   83 D(11,6,9,14)    =   -178.495630    -0.000007    -0.977508  -179.473138
	   84 D(13,9,12,15)   =    -58.407416    -0.000004     1.136661   -57.270755
	   85 D(13,9,12,19)   =    121.796802    -0.000008    -0.155344   121.641458
	   86 D(14,9,12,15)   =     56.779607     0.000009     1.480332    58.259939
	   87 D(14,9,12,19)   =   -123.016175     0.000005     0.188326  -122.827849
	   88 D(16,15,12,19)  =    124.091193    -0.000000    -0.016981   124.074212
	   89 D(17,15,12,19)  =      3.538968     0.000002    -0.073586     3.465382
	   90 D(18,15,12,19)  =   -116.621549     0.000000    -0.154888  -116.776437
	 ---------------------------------------------------------------------------
	Successfully symmetrized geometry.

  ==> Convergence Check <==

  Measures of convergence in internal coordinates in au.
  Criteria marked as inactive (o), active & met (*), and active & unmet ( ).
  ---------------------------------------------------------------------------------------------
   Step     Total Energy     Delta E     MAX Force     RMS Force      MAX Disp      RMS Disp   
  ---------------------------------------------------------------------------------------------
    Convergence Criteria    1.00e-06 *    3.00e-04 *             o    1.20e-03 *             o
  ---------------------------------------------------------------------------------------------
      2    -305.27273233   -3.64e-03      1.29e-02      2.67e-03 o    1.42e-01      4.49e-02 o  ~
  ---------------------------------------------------------------------------------------------

	Writing optimization data to binary file.
	Structure for next step:
	Cartesian Geometry (in Angstrom)
	    C    -3.4714238871   0.4280149805   0.0263744218
	    C    -2.2437608576  -0.5176556648   0.0489857807
	    H    -4.2933736307   0.0087063961   0.6130085998
	    H    -3.8253620712   0.5836474176  -0.9970727133
	    H    -3.2149946447   1.4037257002   0.4488386588
	    C    -0.9026956186   0.2508412828   0.0093854835
	    H    -2.2898304663  -1.1916771573  -0.8038917060
	    H    -2.2736871178  -1.1366935099   0.9432863271
	    C     0.3106590462  -0.7019178466  -0.0027584317
	    H    -0.8335546052   0.9079231909   0.8736343864
	    H    -0.8700076691   0.8823202025  -0.8761535303
	    C     1.6622571496   0.0574896531  -0.0212070822
	    H     0.2691772957  -1.3532455571  -0.8749993602
	    H     0.2902672812  -1.3496952643   0.8729165762
	    C     2.9209530573  -0.8398031172  -0.0469808485
	    H     2.9206616069  -1.5153439257   0.8040529037
	    H     3.8164890966  -0.2270027555  -0.0161924442
	    H     2.9346911657  -1.4410632120  -0.9527806352
	    O     1.7335811717   1.2737000622  -0.0353509820
			--------------------------
			 OPTKING Finished Execution 
			--------------------------

    Structure for next step:
    Molecular point group: c1
    Full point group: C1

    Geometry (in Angstrom), charge = 0, multiplicity = 1:

    C           -3.467558909656     0.427682232359     0.030020442360
    C           -2.239895880144    -0.517988412862     0.052631801253
    H           -4.289508653186     0.008373647999     0.616654620407
    H           -3.821497093740     0.583314669455    -0.993426692755
    H           -3.211129667215     1.403392952140     0.452484679405
    C           -0.898830641146     0.250508534656     0.013031504092
    H           -2.285965488789    -1.192009905425    -0.800245685476
    H           -2.269822140358    -1.137026258032     0.946932347694
    C            0.314524023662    -0.702250594753     0.000887588898
    H           -0.829689627737     0.907590442816     0.877280406965
    H           -0.866142691617     0.881987454383    -0.872507509726
    C            1.666122127029     0.057156904956    -0.017561061625
    H            0.273042273173    -1.353578305177    -0.871353339597
    H            0.294132258694    -1.350028012397     0.876562596795
    C            2.924818034807    -0.840135865349    -0.043334827971
    H            2.924526584419    -1.515676673791     0.807698924290
    H            3.820354074034    -0.227335503560    -0.012546423614
    H            2.938556143211    -1.441395960101    -0.949134614644
    O            1.737446149128     1.273367314132    -0.031704961422

gradient() will perform analytic gradient computation.
   => Loading Basis Set <=

    Name: STO-3G
    Role: ORBITAL
    Keyword: BASIS
    atoms 1-2, 6, 9, 12, 15             entry C          line    60 file /home/hrgrimsl/psi4conda/share/psi4/basis/sto-3g.gbs 
    atoms 3-5, 7-8, 10-11, 13-14, 16-18 entry H          line    18 file /home/hrgrimsl/psi4conda/share/psi4/basis/sto-3g.gbs 
    atoms 19                            entry O          line    80 file /home/hrgrimsl/psi4conda/share/psi4/basis/sto-3g.gbs 


			-----------------------------------------
			 OPTKING 2.0: for geometry optimizations 
			  - R.A. King,  Bethel University        
			-----------------------------------------

	Previous internal coordinate definitions found.
	---Fragment 1 Geometry and Gradient---
	 C          -6.5527366889        0.8082022911        0.0567304144
	 C          -4.2327897797       -0.9788562403        0.0994596902
	 H          -8.1059965992        0.0158239015        1.1653083511
	 H          -7.2215829248        1.1023049746       -1.8773043824
	 H          -6.0681556482        2.6520283364        0.8550721234
	 C          -1.6985437516        0.4733925244        0.0246259738
	 H          -4.3198487230       -2.2525722689       -1.5122451846
	 H          -4.2893422156       -2.1486682336        1.7894428035
	 C           0.5943642669       -1.3270613007        0.0016772999
	 H          -1.5678861717        1.7150973777        1.6578197109
	 H          -1.6367724792        1.6667147414       -1.6488002423
	 C           3.1485145240        0.1080108970       -0.0331855971
	 H           0.5159751190       -2.5578922962       -1.6466191768
	 H           0.5558294158       -2.5511832152        1.6564632463
	 C           5.5271050743       -1.5876266999       -0.0818909569
	 H           5.5265543129       -2.8642138195        1.5263297647
	 H           7.2194229306       -0.4296018420       -0.0237093046
	 H           5.5530663368       -2.7238436136       -1.7936044849
	 O           3.2832973925        2.4063154903       -0.0599136941
	             0.0032875701       -0.0031494006        0.0001131524
	             0.0006415854       -0.0014013577        0.0005177429
	            -0.0042719735       -0.0025554454        0.0049898229
	            -0.0027635425       -0.0000560010       -0.0070867169
	             0.0028066873        0.0064430330        0.0017482413
	             0.0002326743        0.0012707229        0.0010910873
	             0.0006655020        0.0008868098       -0.0005242236
	            -0.0005855616       -0.0008607614       -0.0007191447
	            -0.0008123243       -0.0003037556       -0.0006465079
	             0.0001191274        0.0000402642       -0.0001043633
	             0.0000416528       -0.0001217342       -0.0000269527
	            -0.0004353323        0.0016199035        0.0023190116
	            -0.0002863435       -0.0005004427        0.0000565551
	            -0.0000881273       -0.0005600128       -0.0000611452
	             0.0007611766       -0.0003441279       -0.0003034796
	            -0.0000266995       -0.0004668054       -0.0000723276
	             0.0002537187        0.0003863294       -0.0000581826
	             0.0003459708       -0.0006305117       -0.0003162597
	             0.0001142392        0.0003032938       -0.0009163096

	---Fragment 1 Intrafragment Coordinates---
	 - Coordinate -           - BOHR/RAD -       - ANG/DEG -
	 R(1,2)           =         2.928747	       1.549826
	 R(1,3)           =         2.066259	       1.093417
	 R(1,4)           =         2.067448	       1.094046
	 R(1,5)           =         2.066849	       1.093729
	 R(2,6)           =         2.921820	       1.546160
	 R(2,7)           =         2.056094	       1.088038
	 R(2,8)           =         2.056137	       1.088061
	 R(6,9)           =         2.915405	       1.542766
	 R(6,10)          =         2.055778	       1.087871
	 R(6,11)          =         2.056256	       1.088124
	 R(9,12)          =         2.929903	       1.550438
	 R(9,13)          =         2.058633	       1.089382
	 R(9,14)          =         2.058707	       1.089421
	 R(12,15)         =         2.921515	       1.545999
	 R(12,19)         =         2.302408	       1.218382
	 R(15,16)         =         2.053302	       1.086561
	 R(15,17)         =         2.051425	       1.085568
	 R(15,18)         =         2.054660	       1.087279
	 B(1,2,6)         =         1.964272	     112.544504
	 B(1,2,7)         =         1.910300	     109.452108
	 B(1,2,8)         =         1.914905	     109.715965
	 B(2,1,3)         =         1.932259	     110.710275
	 B(2,1,4)         =         1.935543	     110.898443
	 B(2,1,5)         =         1.931555	     110.669946
	 B(2,6,9)         =         1.955629	     112.049315
	 B(2,6,10)        =         1.912393	     109.572026
	 B(2,6,11)        =         1.912771	     109.593693
	 B(3,1,4)         =         1.889412	     108.255335
	 B(3,1,5)         =         1.887163	     108.126480
	 B(4,1,5)         =         1.886284	     108.076084
	 B(6,2,7)         =         1.901337	     108.938569
	 B(6,2,8)         =         1.904653	     109.128553
	 B(6,9,12)        =         1.964081	     112.533578
	 B(6,9,13)        =         1.923663	     110.217781
	 B(6,9,14)        =         1.924272	     110.252646
	 B(7,2,8)         =         1.865719	     106.897819
	 B(9,6,10)        =         1.906339	     109.225187
	 B(9,6,11)        =         1.905367	     109.169505
	 B(9,12,15)       =         2.010496	     115.192945
	 B(9,12,19)       =         2.141352	     122.690406
	 B(10,6,11)       =         1.869306	     107.103335
	 B(12,9,13)       =         1.892849	     108.452238
	 B(12,9,14)       =         1.893489	     108.488937
	 B(12,15,16)      =         1.925775	     110.338793
	 B(12,15,17)      =         1.921476	     110.092481
	 B(12,15,18)      =         1.923176	     110.189877
	 B(13,9,14)       =         1.862266	     106.700008
	 B(15,12,19)      =         2.131176	     122.107366
	 B(16,15,17)      =         1.906008	     109.206223
	 B(16,15,18)      =         1.884620	     107.980800
	 B(17,15,18)      =         1.902198	     108.987916
	 D(1,2,6,9)       =        -3.117034	    -178.592864
	 D(1,2,6,10)      =         1.047272	      60.004278
	 D(1,2,6,11)      =        -0.999123	     -57.245559
	 D(2,6,9,12)      =        -3.126762	    -179.150245
	 D(2,6,9,13)      =         1.041145	      59.653216
	 D(2,6,9,14)      =        -1.010232	     -57.882022
	 D(3,1,2,6)       =        -2.557697	    -146.545230
	 D(3,1,2,7)       =         1.608668	      92.169908
	 D(3,1,2,8)       =        -0.433406	     -24.832317
	 D(4,1,2,6)       =         1.627816	      93.266975
	 D(4,1,2,7)       =        -0.489004	     -28.017887
	 D(4,1,2,8)       =        -2.531078	    -145.020112
	 D(5,1,2,6)       =        -0.465463	     -26.669045
	 D(5,1,2,7)       =        -2.582283	    -147.953907
	 D(5,1,2,8)       =         1.658828	      95.043868
	 D(6,9,12,15)     =        -3.132351	    -179.470470
	 D(6,9,12,19)     =        -0.009743	      -0.558257
	 D(7,2,6,9)       =        -0.995108	     -57.015460
	 D(7,2,6,10)      =        -3.113987	    -178.418318
	 D(7,2,6,11)      =         1.122803	      64.331845
	 D(8,2,6,9)       =         1.036049	      59.361207
	 D(8,2,6,10)      =        -1.082831	     -62.041651
	 D(8,2,6,11)      =        -3.129227	    -179.291489
	 D(9,12,15,16)    =        -0.994952	     -57.006572
	 D(9,12,15,17)    =        -3.099974	    -177.615403
	 D(9,12,15,18)    =         1.084596	      62.142778
	 D(10,6,9,12)     =        -1.004404	     -57.548105
	 D(10,6,9,13)     =        -3.119683	    -178.744644
	 D(10,6,9,14)     =         1.112126	      63.720118
	 D(11,6,9,12)     =         1.034258	      59.258640
	 D(11,6,9,13)     =        -1.081020	     -61.937899
	 D(11,6,9,14)     =        -3.132397	    -179.473138
	 D(13,9,12,15)    =        -0.999563	     -57.270755
	 D(13,9,12,19)    =         2.123044	     121.641458
	 D(14,9,12,15)    =         1.016828	      58.259939
	 D(14,9,12,19)    =        -2.143750	    -122.827849
	 D(16,15,12,19)   =         2.165504	     124.074212
	 D(17,15,12,19)   =         0.060482	       3.465382
	 D(18,15,12,19)   =        -2.038133	    -116.776437

	Current energy   :      -305.2742863600

	Energy change for the previous step:
		Projected    :        -0.0025376122
		Actual       :        -0.0015540328

	Performing BFGS update.
	Previous computed or guess Hessian on step 1.
	Steps to be used in Hessian update: 2 1
	Taking RFO optimization step.
	Going to follow RFO solution 1.
	Using RFO vector 1.

	Determining step-restricting scale parameter for RS-RFO.
	Maximum step size allowed    0.50000

	 Iter      |step|        alpha        rfo_root  
	------------------------------------------------
	    0     0.75350       1.00000           1
	    1     0.58021       1.74476           1
	    2     0.51276       2.24018           1
	    3     0.50042       2.35123           1
	    4     0.50000       2.35515           1
	------------------------------------------------
	Norm of target step-size    0.50000
	Projected energy change by RFO approximation:        -0.0017434868

	Back-transformation to cartesian coordinates...
	Could not converge backtransformation.
	Using first guess instead.

	--- Internal Coordinate Step in ANG or DEG, aJ/ANG or AJ/DEG ---
	 ---------------------------------------------------------------------------
	   Coordinate                Previous        Force       Change         New 
	   ----------                --------       ------       ------       ------
	    1 R(1,2)          =      1.549826    -0.009601    -0.001831     1.547995
	    2 R(1,3)          =      1.093417    -0.056587     0.002943     1.096360
	    3 R(1,4)          =      1.094046    -0.061918     0.002566     1.096613
	    4 R(1,5)          =      1.093729    -0.058339     0.002691     1.096420
	    5 R(2,6)          =      1.546160    -0.004206     0.000263     1.546423
	    6 R(2,7)          =      1.088038     0.001373    -0.000047     1.087991
	    7 R(2,8)          =      1.088061     0.000702    -0.000200     1.087861
	    8 R(6,9)          =      1.542766    -0.001399     0.000073     1.542839
	    9 R(6,10)         =      1.087871     0.000420    -0.000416     1.087455
	   10 R(6,11)         =      1.088124     0.000391    -0.000284     1.087840
	   11 R(9,12)         =      1.550438    -0.010715     0.002341     1.552779
	   12 R(9,13)         =      1.089382    -0.002182    -0.000270     1.089112
	   13 R(9,14)         =      1.089421    -0.002352    -0.000188     1.089233
	   14 R(12,15)        =      1.545999    -0.014097     0.002212     1.548211
	   15 R(12,19)        =      1.218382    -0.002637    -0.002621     1.215761
	   16 R(15,16)        =      1.086561    -0.001924    -0.000135     1.086425
	   17 R(15,17)        =      1.085568    -0.003508    -0.000971     1.084596
	   18 R(15,18)        =      1.087279    -0.005079    -0.000483     1.086796
	   19 B(1,2,6)        =    112.544504     0.000020    -0.250403   112.294101
	   20 B(1,2,7)        =    109.452108    -0.000008    -0.046153   109.405955
	   21 B(1,2,8)        =    109.715965    -0.000009    -0.067625   109.648340
	   22 B(2,1,3)        =    110.710275     0.000055    -0.207978   110.502297
	   23 B(2,1,4)        =    110.898443     0.000018    -0.292941   110.605502
	   24 B(2,1,5)        =    110.669946     0.000080    -0.270644   110.399301
	   25 B(2,6,9)        =    112.049315     0.000050     0.011122   112.060437
	   26 B(2,6,10)       =    109.572026    -0.000022     0.023856   109.595883
	   27 B(2,6,11)       =    109.593693    -0.000015    -0.041222   109.552471
	   28 B(3,1,4)        =    108.255335    -0.000052     0.311962   108.567298
	   29 B(3,1,5)        =    108.126480    -0.000060     0.255034   108.381513
	   30 B(4,1,5)        =    108.076084    -0.000049     0.236712   108.312795
	   31 B(6,2,7)        =    108.938569    -0.000006    -0.032924   108.905645
	   32 B(6,2,8)        =    109.128553    -0.000003     0.191402   109.319954
	   33 B(6,9,12)       =    112.533578     0.000050    -0.227025   112.306553
	   34 B(6,9,13)       =    110.217781    -0.000005     0.156651   110.374432
	   35 B(6,9,14)       =    110.252646    -0.000020     0.128614   110.381260
	   36 B(7,2,8)        =    106.897819     0.000005     0.230141   107.127960
	   37 B(9,6,10)       =    109.225187    -0.000011    -0.062499   109.162688
	   38 B(9,6,11)       =    109.169505    -0.000011    -0.063308   109.106197
	   39 B(9,12,15)      =    115.192945    -0.000018    -0.395294   114.797650
	   40 B(9,12,19)      =    122.690406    -0.000001     0.094535   122.784940
	   41 B(10,6,11)      =    107.103335     0.000007     0.137583   107.240918
	   42 B(12,9,13)      =    108.452238    -0.000035    -0.084912   108.367326
	   43 B(12,9,14)      =    108.488937    -0.000018     0.025969   108.514907
	   44 B(12,15,16)     =    110.338793    -0.000015    -0.140560   110.198232
	   45 B(12,15,17)     =    110.092481     0.000027     0.037835   110.130315
	   46 B(12,15,18)     =    110.189877    -0.000049    -0.216183   109.973694
	   47 B(13,9,14)      =    106.700008     0.000027     0.007542   106.707550
	   48 B(15,12,19)     =    122.107366     0.000019     0.260171   122.367537
	   49 B(16,15,17)     =    109.206223    -0.000010     0.202166   109.408389
	   50 B(16,15,18)     =    107.980800     0.000037    -0.054376   107.926424
	   51 B(17,15,18)     =    108.987916     0.000010     0.175498   109.163414
	   52 D(1,2,6,9)      =   -178.592864    -0.000000     0.102468  -178.490396
	   53 D(1,2,6,10)     =     60.004278    -0.000001     0.157761    60.162039
	   54 D(1,2,6,11)     =    -57.245559     0.000002     0.001229   -57.244331
	   55 D(2,6,9,12)     =   -179.150245    -0.000001    -0.478719  -179.628963
	   56 D(2,6,9,13)     =     59.653216     0.000003    -0.326021    59.327195
	   57 D(2,6,9,14)     =    -57.882022    -0.000001    -0.509686   -58.391708
	   58 D(3,1,2,6)      =   -146.545230    -0.000016    -9.337992  -155.883221
	   59 D(3,1,2,7)      =     92.169908    -0.000017    -9.098443    83.071466
	   60 D(3,1,2,8)      =    -24.832317    -0.000016    -9.310808   -34.143125
	   61 D(4,1,2,6)      =     93.266975    -0.000013    -9.400475    83.866500
	   62 D(4,1,2,7)      =    -28.017887    -0.000013    -9.160926   -37.178813
	   63 D(4,1,2,8)      =   -145.020112    -0.000012    -9.373291  -154.393404
	   64 D(5,1,2,6)      =    -26.669045    -0.000013    -9.329707   -35.998752
	   65 D(5,1,2,7)      =   -147.953907    -0.000014    -9.090158  -157.044065
	   66 D(5,1,2,8)      =     95.043868    -0.000013    -9.302523    85.741345
	   67 D(6,9,12,15)    =   -179.470470    -0.000005    -1.474159  -180.944629
	   68 D(6,9,12,19)    =     -0.558257     0.000004     2.128400     1.570143
	   69 D(7,2,6,9)      =    -57.015460    -0.000000    -0.142529   -57.157989
	   70 D(7,2,6,10)     =   -178.418318    -0.000001    -0.087236  -178.505553
	   71 D(7,2,6,11)     =     64.331845     0.000002    -0.243768    64.088077
	   72 D(8,2,6,9)      =     59.361207    -0.000000     0.221158    59.582365
	   73 D(8,2,6,10)     =    -62.041651    -0.000001     0.276451   -61.765200
	   74 D(8,2,6,11)     =   -179.291489     0.000002     0.119919  -179.171570
	   75 D(9,12,15,16)   =    -57.006572     0.000003     1.328705   -55.677867
	   76 D(9,12,15,17)   =   -177.615403     0.000004     1.143007  -176.472396
	   77 D(9,12,15,18)   =     62.142778     0.000004     1.038939    63.181717
	   78 D(10,6,9,12)    =    -57.548105    -0.000001    -0.484365   -58.032470
	   79 D(10,6,9,13)    =   -178.744644     0.000002    -0.331668  -179.076312
	   80 D(10,6,9,14)    =     63.720118    -0.000002    -0.515333    63.204784
	   81 D(11,6,9,12)    =     59.258640    -0.000002    -0.390380    58.868260
	   82 D(11,6,9,13)    =    -61.937899     0.000001    -0.237682   -62.175582
	   83 D(11,6,9,14)    =   -179.473138    -0.000003    -0.421347  -179.894485
	   84 D(13,9,12,15)   =    -57.270755    -0.000004    -1.483671   -58.754426
	   85 D(13,9,12,19)   =    121.641458     0.000005     2.118888   123.760346
	   86 D(14,9,12,15)   =     58.259939    -0.000004    -1.506027    56.753912
	   87 D(14,9,12,19)   =   -122.827849     0.000006     2.096532  -120.731317
	   88 D(16,15,12,19)  =    124.074212    -0.000006    -2.255165   121.819047
	   89 D(17,15,12,19)  =      3.465382    -0.000005    -2.440864     1.024518
	   90 D(18,15,12,19)  =   -116.776437    -0.000005    -2.544931  -119.321369
	 ---------------------------------------------------------------------------
	Successfully symmetrized geometry.

  ==> Convergence Check <==

  Measures of convergence in internal coordinates in au.
  Criteria marked as inactive (o), active & met (*), and active & unmet ( ).
  ---------------------------------------------------------------------------------------------
   Step     Total Energy     Delta E     MAX Force     RMS Force      MAX Disp      RMS Disp   
  ---------------------------------------------------------------------------------------------
    Convergence Criteria    1.00e-06 *    3.00e-04 *             o    1.20e-03 *             o
  ---------------------------------------------------------------------------------------------
      3    -305.27428636   -1.55e-03      7.52e-03      1.39e-03 o    1.64e-01      5.26e-02 o  ~
  ---------------------------------------------------------------------------------------------

	Writing optimization data to binary file.
	Structure for next step:
	Cartesian Geometry (in Angstrom)
	    C    -3.4631859009   0.4287516278   0.0368257017
	    C    -2.2403430518  -0.5199236291   0.0677790194
	    H    -4.3338774980  -0.0519366539   0.4981726381
	    H    -3.7181869361   0.6961098951  -0.9956730187
	    H    -3.2452145741   1.3512945094   0.5877704631
	    C    -0.8999162061   0.2485072448   0.0030064645
	    H    -2.2941030222  -1.2065677062  -0.7744528612
	    H    -2.2669204120  -1.1214949656   0.9737853794
	    C     0.3140995634  -0.7035837715  -0.0034345827
	    H    -0.8227103010   0.9196303300   0.8551746673
	    H    -0.8754286303   0.8628084491  -0.8944513710
	    C     1.6636042884   0.0624843175  -0.0590941766
	    H     0.2649751620  -1.3748790490  -0.8596555528
	    H     0.3089423561  -1.3308978989   0.8870023466
	    C     2.9226965497  -0.8383167199  -0.0448909458
	    H     2.9085239038  -1.4891137690   0.8249262461
	    H     3.8185615437  -0.2273260851  -0.0233132850
	    H     2.9401792825  -1.4659144866  -0.9319876276
	    O     1.7317847574   1.2763170226  -0.0651197096
			--------------------------
			 OPTKING Finished Execution 
			--------------------------

    Structure for next step:
    Molecular point group: c1
    Full point group: C1

    Geometry (in Angstrom), charge = 0, multiplicity = 1:

    C           -3.462093980524     0.427986372817     0.045726154707
    C           -2.239251131460    -0.520688884106     0.076679472380
    H           -4.332785577623    -0.052701908862     0.507073091077
    H           -3.717095015732     0.695344640116    -0.986772565655
    H           -3.244122653685     1.350529254348     0.596670916113
    C           -0.898824285680     0.247741989803     0.011906917458
    H           -2.293011101840    -1.207332961180    -0.765552408162
    H           -2.265828491606    -1.122260220568     0.982685832421
    C            0.315191483807    -0.704349026548     0.005465870285
    H           -0.821618380580     0.918865074950     0.864075120286
    H           -0.874336709960     0.862043194053    -0.885550918005
    C            1.664696208792     0.061719062449    -0.050193723610
    H            0.266067082421    -1.375644304026    -0.850755099782
    H            0.310034276448    -1.331663153931     0.895902799645
    C            2.923788470079    -0.839081974916    -0.035990492783
    H            2.909615824185    -1.489879024020     0.833826699127
    H            3.819653464044    -0.228091340081    -0.014412831965
    H            2.941271202846    -1.466679741559    -0.923087174651
    O            1.732876677724     1.275551767625    -0.056219256609

gradient() will perform analytic gradient computation.
   => Loading Basis Set <=

    Name: STO-3G
    Role: ORBITAL
    Keyword: BASIS
    atoms 1-2, 6, 9, 12, 15             entry C          line    60 file /home/hrgrimsl/psi4conda/share/psi4/basis/sto-3g.gbs 
    atoms 3-5, 7-8, 10-11, 13-14, 16-18 entry H          line    18 file /home/hrgrimsl/psi4conda/share/psi4/basis/sto-3g.gbs 
    atoms 19                            entry O          line    80 file /home/hrgrimsl/psi4conda/share/psi4/basis/sto-3g.gbs 


			-----------------------------------------
			 OPTKING 2.0: for geometry optimizations 
			  - R.A. King,  Bethel University        
			-----------------------------------------

	Previous internal coordinate definitions found.
	---Fragment 1 Geometry and Gradient---
	 C          -6.5424094695        0.8087770332        0.0864099095
	 C          -4.2315713812       -0.9839593914        0.1449032028
	 H          -8.1877781342       -0.0995921744        0.9582292715
	 H          -7.0242915896        1.3140109378       -1.8647299045
	 H          -6.1305033570        2.5521304252        1.1275446229
	 C          -1.6985317415        0.4681645123        0.0225008131
	 H          -4.3331630021       -2.2815286478       -1.4466843918
	 H          -4.2817953132       -2.1207644667        1.8570070979
	 C           0.5956255838       -1.3310267621        0.0103289979
	 H          -1.5526337250        1.7364033447        1.6328653356
	 H          -1.6522569298        1.6290255515       -1.6734487118
	 C           3.1458199291        0.1166321252       -0.0948523912
	 H           0.5027939188       -2.5995909909       -1.6076941447
	 H           0.5858798743       -2.5164786622        1.6930109330
	 C           5.5251594789       -1.5856351356       -0.0680121747
	 H           5.4983770596       -2.8154633265        1.5757041036
	 H           7.2180989696       -0.4310301660       -0.0272363052
	 H           5.5581970559       -2.7716230362       -1.7443819569
	 O           3.2746623430        2.4104435091       -0.1062389984
	             0.0037082249       -0.0032564667       -0.0001314971
	             0.0005426115       -0.0026511641        0.0009570674
	            -0.0063290950       -0.0045189227        0.0054397529
	            -0.0020087424        0.0009832443       -0.0094669186
	             0.0035672568        0.0078715249        0.0039293176
	             0.0005513949        0.0027817563        0.0009543982
	             0.0009560915        0.0011724358       -0.0006069612
	            -0.0006628915       -0.0006076705       -0.0008473612
	            -0.0018976176       -0.0019813399        0.0024151614
	             0.0001132262       -0.0003751880       -0.0001842902
	             0.0000939473       -0.0004536767       -0.0000046034
	            -0.0001443944        0.0088537226       -0.0067589006
	             0.0003529993       -0.0002865384        0.0001993894
	            -0.0003662161       -0.0008503310       -0.0002661417
	             0.0030050743       -0.0012533876        0.0026850060
	            -0.0000593246       -0.0008481539       -0.0003174992
	            -0.0006000115        0.0001785481       -0.0001155257
	            -0.0004691671       -0.0002726742       -0.0000084840
	            -0.0003533666       -0.0044857185        0.0021280901

	---Fragment 1 Intrafragment Coordinates---
	 - Coordinate -           - BOHR/RAD -       - ANG/DEG -
	 R(1,2)           =         2.925286	       1.547995
	 R(1,3)           =         2.071821	       1.096360
	 R(1,4)           =         2.072298	       1.096613
	 R(1,5)           =         2.071934	       1.096420
	 R(2,6)           =         2.922317	       1.546423
	 R(2,7)           =         2.056005	       1.087991
	 R(2,8)           =         2.055760	       1.087861
	 R(6,9)           =         2.915544	       1.542839
	 R(6,10)          =         2.054991	       1.087455
	 R(6,11)          =         2.055720	       1.087840
	 R(9,12)          =         2.934326	       1.552779
	 R(9,13)          =         2.058123	       1.089112
	 R(9,14)          =         2.058351	       1.089233
	 R(12,15)         =         2.925695	       1.548211
	 R(12,19)         =         2.297455	       1.215761
	 R(15,16)         =         2.053046	       1.086425
	 R(15,17)         =         2.049590	       1.084596
	 R(15,18)         =         2.053746	       1.086796
	 B(1,2,6)         =         1.959902	     112.294101
	 B(1,2,7)         =         1.909494	     109.405955
	 B(1,2,8)         =         1.913725	     109.648340
	 B(2,1,3)         =         1.928629	     110.502297
	 B(2,1,4)         =         1.930430	     110.605502
	 B(2,1,5)         =         1.926831	     110.399301
	 B(2,6,9)         =         1.955824	     112.060437
	 B(2,6,10)        =         1.912809	     109.595883
	 B(2,6,11)        =         1.912051	     109.552471
	 B(3,1,4)         =         1.894857	     108.567298
	 B(3,1,5)         =         1.891614	     108.381513
	 B(4,1,5)         =         1.890415	     108.312795
	 B(6,2,7)         =         1.900762	     108.905645
	 B(6,2,8)         =         1.907993	     109.319954
	 B(6,9,12)        =         1.960119	     112.306553
	 B(6,9,13)        =         1.926397	     110.374432
	 B(6,9,14)        =         1.926516	     110.381260
	 B(7,2,8)         =         1.869736	     107.127960
	 B(9,6,10)        =         1.905248	     109.162688
	 B(9,6,11)        =         1.904262	     109.106197
	 B(9,12,15)       =         2.003597	     114.797650
	 B(9,12,19)       =         2.143001	     122.784940
	 B(10,6,11)       =         1.871707	     107.240918
	 B(12,9,13)       =         1.891367	     108.367326
	 B(12,9,14)       =         1.893942	     108.514907
	 B(12,15,16)      =         1.923322	     110.198232
	 B(12,15,17)      =         1.922137	     110.130315
	 B(12,15,18)      =         1.919403	     109.973694
	 B(13,9,14)       =         1.862398	     106.707550
	 B(15,12,19)      =         2.135716	     122.367537
	 B(16,15,17)      =         1.909537	     109.408389
	 B(16,15,18)      =         1.883671	     107.926424
	 B(17,15,18)      =         1.905261	     109.163414
	 D(1,2,6,9)       =        -3.115245	    -178.490396
	 D(1,2,6,10)      =         1.050026	      60.162039
	 D(1,2,6,11)      =        -0.999102	     -57.244331
	 D(2,6,9,12)      =        -3.135117	    -179.628963
	 D(2,6,9,13)      =         1.035455	      59.327195
	 D(2,6,9,14)      =        -1.019128	     -58.391708
	 D(3,1,2,6)       =        -2.720675	    -155.883221
	 D(3,1,2,7)       =         1.449871	      83.071466
	 D(3,1,2,8)       =        -0.595910	     -34.143125
	 D(4,1,2,6)       =         1.463747	      83.866500
	 D(4,1,2,7)       =        -0.648893	     -37.178813
	 D(4,1,2,8)       =        -2.694673	    -154.393404
	 D(5,1,2,6)       =        -0.628297	     -35.998752
	 D(5,1,2,7)       =        -2.740936	    -157.044065
	 D(5,1,2,8)       =         1.496469	      85.741345
	 D(6,9,12,15)     =         3.125106	     179.055371
	 D(6,9,12,19)     =         0.027404	       1.570143
	 D(7,2,6,9)       =        -0.997595	     -57.157989
	 D(7,2,6,10)      =        -3.115510	    -178.505553
	 D(7,2,6,11)      =         1.118548	      64.088077
	 D(8,2,6,9)       =         1.039908	      59.582365
	 D(8,2,6,10)      =        -1.078006	     -61.765200
	 D(8,2,6,11)      =        -3.127134	    -179.171570
	 D(9,12,15,16)    =        -0.971762	     -55.677867
	 D(9,12,15,17)    =        -3.080024	    -176.472396
	 D(9,12,15,18)    =         1.102729	      63.181717
	 D(10,6,9,12)     =        -1.012858	     -58.032470
	 D(10,6,9,13)     =        -3.125471	    -179.076312
	 D(10,6,9,14)     =         1.103132	      63.204784
	 D(11,6,9,12)     =         1.027445	      58.868260
	 D(11,6,9,13)     =        -1.085169	     -62.175582
	 D(11,6,9,14)     =        -3.139751	    -179.894485
	 D(13,9,12,15)    =        -1.025458	     -58.754426
	 D(13,9,12,19)    =         2.160026	     123.760346
	 D(14,9,12,15)    =         0.990543	      56.753912
	 D(14,9,12,19)    =        -2.107159	    -120.731317
	 D(16,15,12,19)   =         2.126143	     121.819047
	 D(17,15,12,19)   =         0.017881	       1.024518
	 D(18,15,12,19)   =        -2.082551	    -119.321369

	Current energy   :      -305.2751895987

	Energy change for the previous step:
		Projected    :        -0.0017434868
		Actual       :        -0.0009032387

	Performing BFGS update.
	Previous computed or guess Hessian on step 1.
	Steps to be used in Hessian update: 3 2
	Taking RFO optimization step.
	Going to follow RFO solution 1.
	Using RFO vector 1.

	Determining step-restricting scale parameter for RS-RFO.
	Maximum step size allowed    0.50000

	 Iter      |step|        alpha        rfo_root  
	------------------------------------------------
	    0     0.79842       1.00000           1
	    1     0.59611       1.67123           1
	    2     0.51630       2.13479           1
	    3     0.50063       2.24842           1
	    4     0.50000       2.25315           1
	------------------------------------------------
	Norm of target step-size    0.50000
	Projected energy change by RFO approximation:        -0.0023732555

	Back-transformation to cartesian coordinates...
	Could not converge backtransformation.
	Using first guess instead.

	--- Internal Coordinate Step in ANG or DEG, aJ/ANG or AJ/DEG ---
	 ---------------------------------------------------------------------------
	   Coordinate                Previous        Force       Change         New 
	   ----------                --------       ------       ------       ------
	    1 R(1,2)          =      1.547995    -0.012402    -0.003970     1.544025
	    2 R(1,3)          =      1.096360    -0.076593     0.004904     1.101264
	    3 R(1,4)          =      1.096613    -0.079259     0.003440     1.100053
	    4 R(1,5)          =      1.096420    -0.076677     0.003213     1.099633
	    5 R(2,6)          =      1.546423    -0.005490    -0.000616     1.545808
	    6 R(2,7)          =      1.087991     0.002614     0.000423     1.088414
	    7 R(2,8)          =      1.087861     0.002912     0.000279     1.088140
	    8 R(6,9)          =      1.542839    -0.001361    -0.000380     1.542460
	    9 R(6,10)         =      1.087455     0.003031     0.000022     1.087476
	   10 R(6,11)         =      1.087840     0.002062     0.000071     1.087911
	   11 R(9,12)         =      1.552779    -0.019407     0.000530     1.553309
	   12 R(9,13)         =      1.089112    -0.000032    -0.000108     1.089004
	   13 R(9,14)         =      1.089233    -0.002257    -0.000183     1.089050
	   14 R(12,15)        =      1.548211    -0.023268     0.000069     1.548281
	   15 R(12,19)        =      1.215761     0.037148    -0.001532     1.214229
	   16 R(15,16)        =      1.086425    -0.002098     0.000141     1.086567
	   17 R(15,17)        =      1.084596     0.003273    -0.000093     1.084503
	   18 R(15,18)        =      1.086796    -0.001292    -0.000012     1.086783
	   19 B(1,2,6)        =    112.294101     0.000051    -0.250047   112.044054
	   20 B(1,2,7)        =    109.405955    -0.000028    -0.090235   109.315720
	   21 B(1,2,8)        =    109.648340    -0.000011    -0.127647   109.520693
	   22 B(2,1,3)        =    110.502297     0.000088    -0.170038   110.332259
	   23 B(2,1,4)        =    110.605502     0.000070    -0.398022   110.207480
	   24 B(2,1,5)        =    110.399301     0.000123    -0.231118   110.168183
	   25 B(2,6,9)        =    112.060437     0.000054     0.071810   112.132247
	   26 B(2,6,10)       =    109.595883    -0.000023    -0.024726   109.571157
	   27 B(2,6,11)       =    109.552471    -0.000015    -0.041654   109.510818
	   28 B(3,1,4)        =    108.567298    -0.000100     0.230300   108.797598
	   29 B(3,1,5)        =    108.381513    -0.000098     0.276750   108.658263
	   30 B(4,1,5)        =    108.312795    -0.000092     0.318365   108.631160
	   31 B(6,2,7)        =    108.905645     0.000006     0.051246   108.956892
	   32 B(6,2,8)        =    109.319954    -0.000022     0.202308   109.522262
	   33 B(6,9,12)       =    112.306553     0.000122    -0.140739   112.165814
	   34 B(6,9,13)       =    110.374432    -0.000059     0.126096   110.500528
	   35 B(6,9,14)       =    110.381260    -0.000027     0.087619   110.468879
	   36 B(7,2,8)        =    107.127960     0.000001     0.237329   107.365289
	   37 B(9,6,10)       =    109.162688    -0.000009    -0.070691   109.091997
	   38 B(9,6,11)       =    109.106197    -0.000006    -0.026732   109.079465
	   39 B(9,12,15)      =    114.797650     0.000086    -0.325951   114.471699
	   40 B(9,12,19)      =    122.784940    -0.000029     0.137097   122.922037
	   41 B(10,6,11)      =    107.240918    -0.000003     0.093208   107.334126
	   42 B(12,9,13)      =    108.367326    -0.000010    -0.053758   108.313568
	   43 B(12,9,14)      =    108.514907    -0.000073    -0.165714   108.349192
	   44 B(12,15,16)     =    110.198232    -0.000056    -0.331060   109.867172
	   45 B(12,15,17)     =    110.130315     0.000042     0.106307   110.236622
	   46 B(12,15,18)     =    109.973694     0.000044    -0.202274   109.771421
	   47 B(13,9,14)      =    106.707550     0.000044     0.153996   106.861546
	   48 B(15,12,19)     =    122.367537    -0.000053     0.238716   122.606253
	   49 B(16,15,17)     =    109.408389    -0.000028     0.144291   109.552680
	   50 B(16,15,18)     =    107.926424     0.000034     0.118028   108.044452
	   51 B(17,15,18)     =    109.163414    -0.000037     0.168833   109.332247
	   52 D(1,2,6,9)      =   -178.490396    -0.000000    -0.027188  -178.517584
	   53 D(1,2,6,10)     =     60.162039    -0.000002     0.031829    60.193868
	   54 D(1,2,6,11)     =    -57.244331     0.000004    -0.042286   -57.286617
	   55 D(2,6,9,12)     =   -179.628963     0.000005    -0.291874  -179.920837
	   56 D(2,6,9,13)     =     59.327195    -0.000001    -0.215854    59.111341
	   57 D(2,6,9,14)     =    -58.391708    -0.000001    -0.537978   -58.929687
	   58 D(3,1,2,6)      =   -155.883221    -0.000015    -9.476492  -165.359714
	   59 D(3,1,2,7)      =     83.071466    -0.000020    -9.315690    73.755775
	   60 D(3,1,2,8)      =    -34.143125    -0.000015    -9.476238   -43.619363
	   61 D(4,1,2,6)      =     83.866500    -0.000009    -9.396191    74.470309
	   62 D(4,1,2,7)      =    -37.178813    -0.000015    -9.235389   -46.414202
	   63 D(4,1,2,8)      =   -154.393404    -0.000010    -9.395937  -163.789341
	   64 D(5,1,2,6)      =    -35.998752    -0.000012    -9.389432   -45.388184
	   65 D(5,1,2,7)      =   -157.044065    -0.000017    -9.228630  -166.272695
	   66 D(5,1,2,8)      =     85.741345    -0.000012    -9.389178    76.352167
	   67 D(6,9,12,15)    =    179.055371     0.000014     1.694831   180.750202
	   68 D(6,9,12,19)    =      1.570143    -0.000012    -0.856720     0.713423
	   69 D(7,2,6,9)      =    -57.157989     0.000000    -0.267767   -57.425756
	   70 D(7,2,6,10)     =   -178.505553    -0.000002    -0.208750  -178.714304
	   71 D(7,2,6,11)     =     64.088077     0.000004    -0.282866    63.805211
	   72 D(8,2,6,9)      =     59.582365    -0.000001     0.160600    59.742965
	   73 D(8,2,6,10)     =    -61.765200    -0.000003     0.219617   -61.545583
	   74 D(8,2,6,11)     =   -179.171570     0.000003     0.145502  -179.026068
	   75 D(9,12,15,16)   =    -55.677867    -0.000020    -1.954744   -57.632611
	   76 D(9,12,15,17)   =   -176.472396    -0.000010    -1.989110  -178.461506
	   77 D(9,12,15,18)   =     63.181717    -0.000012    -2.136863    61.044854
	   78 D(10,6,9,12)    =    -58.032470     0.000005    -0.324715   -58.357185
	   79 D(10,6,9,13)    =   -179.076312    -0.000001    -0.248695  -179.325007
	   80 D(10,6,9,14)    =     63.204784    -0.000002    -0.570819    62.633965
	   81 D(11,6,9,12)    =     58.868260     0.000003    -0.267908    58.600352
	   82 D(11,6,9,13)    =    -62.175582    -0.000004    -0.191888   -62.367470
	   83 D(11,6,9,14)    =   -179.894485    -0.000004    -0.514013  -180.408498
	   84 D(13,9,12,15)   =    -58.754426     0.000013     1.725190   -57.029236
	   85 D(13,9,12,19)   =    123.760346    -0.000013    -0.826361   122.933984
	   86 D(14,9,12,15)   =     56.753912     0.000015     1.790999    58.544911
	   87 D(14,9,12,19)   =   -120.731317    -0.000011    -0.760552  -121.491869
	   88 D(16,15,12,19)  =    121.819047     0.000006     0.584991   122.404038
	   89 D(17,15,12,19)  =      1.024518     0.000016     0.550625     1.575143
	   90 D(18,15,12,19)  =   -119.321369     0.000014     0.402872  -118.918497
	 ---------------------------------------------------------------------------
	Successfully symmetrized geometry.

  ==> Convergence Check <==

  Measures of convergence in internal coordinates in au.
  Criteria marked as inactive (o), active & met (*), and active & unmet ( ).
[...]
	 O           3.2641376953        2.4128789832       -0.2931506556
	            -0.0000047766        0.0000377870       -0.0000184437
	             0.0000058702       -0.0000038713        0.0000089219
	             0.0000093522        0.0000013755        0.0000000820
	            -0.0000006056       -0.0000117314        0.0000222222
	             0.0000029296       -0.0000256743       -0.0000221581
	            -0.0000059272        0.0000095677        0.0000110702
	             0.0000090233        0.0000024237       -0.0000034363
	             0.0000001112        0.0000047288        0.0000097985
	            -0.0000135973       -0.0000151505       -0.0000229913
	             0.0000016922       -0.0000029821        0.0000114992
	            -0.0000060556       -0.0000018689       -0.0000032468
	            -0.0000037668        0.0000429277        0.0000159456
	             0.0000026424       -0.0000082706        0.0000011877
	             0.0000030015        0.0000105217        0.0000024040
	             0.0000138681       -0.0000027212        0.0000037441
	            -0.0000123160       -0.0000029639       -0.0000029952
	             0.0000017999        0.0000103185       -0.0000018315
	            -0.0000042361        0.0000009508       -0.0000072478
	             0.0000009906       -0.0000453671       -0.0000045248

	---Fragment 1 Intrafragment Coordinates---
	 - Coordinate -           - BOHR/RAD -       - ANG/DEG -
	 R(1,2)           =         2.912103	       1.541018
	 R(1,3)           =         2.052272	       1.086016
	 R(1,4)           =         2.052119	       1.085934
	 R(1,5)           =         2.052107	       1.085928
	 R(2,6)           =         2.919542	       1.544955
	 R(2,7)           =         2.057155	       1.088600
	 R(2,8)           =         2.057164	       1.088604
	 R(6,9)           =         2.914695	       1.542390
	 R(6,10)          =         2.056147	       1.088066
	 R(6,11)          =         2.056144	       1.088064
	 R(9,12)          =         2.926690	       1.548738
	 R(9,13)          =         2.058031	       1.089063
	 R(9,14)          =         2.058054	       1.089075
	 R(12,15)         =         2.917014	       1.543617
	 R(12,19)         =         2.302260	       1.218303
	 R(15,16)         =         2.053009	       1.086405
	 R(15,17)         =         2.050513	       1.085084
	 R(15,18)         =         2.053067	       1.086436
	 B(1,2,6)         =         1.960343	     112.319403
	 B(1,2,7)         =         1.907768	     109.307036
	 B(1,2,8)         =         1.907813	     109.309644
	 B(2,1,3)         =         1.929793	     110.568966
	 B(2,1,4)         =         1.932523	     110.725431
	 B(2,1,5)         =         1.932467	     110.722175
	 B(2,6,9)         =         1.958536	     112.215858
	 B(2,6,10)        =         1.911824	     109.539444
	 B(2,6,11)        =         1.911705	     109.532600
	 B(3,1,4)         =         1.889697	     108.271638
	 B(3,1,5)         =         1.889681	     108.270727
	 B(4,1,5)         =         1.888267	     108.189704
	 B(6,2,7)         =         1.907763	     109.306777
	 B(6,2,8)         =         1.907846	     109.311501
	 B(6,9,12)        =         1.966186	     112.654187
	 B(6,9,13)        =         1.923529	     110.210084
	 B(6,9,14)        =         1.923350	     110.199838
	 B(7,2,8)         =         1.870121	     107.150069
	 B(9,6,10)        =         1.905591	     109.182304
	 B(9,6,11)        =         1.905572	     109.181246
	 B(9,12,15)       =         2.008744	     115.092543
	 B(9,12,19)       =         2.141687	     122.709642
	 B(10,6,11)       =         1.868406	     107.051770
	 B(12,9,13)       =         1.891165	     108.355781
	 B(12,9,14)       =         1.890963	     108.344176
	 B(12,15,16)      =         1.922658	     110.160195
	 B(12,15,17)      =         1.923623	     110.215490
	 B(12,15,18)      =         1.922436	     110.147474
	 B(13,9,14)       =         1.865451	     106.882496
	 B(15,12,19)      =         2.132754	     122.197814
	 B(16,15,17)      =         1.903805	     109.080008
	 B(16,15,18)      =         1.887189	     108.127960
	 B(17,15,18)      =         1.903571	     109.066564
	 D(1,2,6,9)       =        -3.139595	    -179.885543
	 D(1,2,6,10)      =         1.024122	      58.677863
	 D(1,2,6,11)      =        -1.020233	     -58.455050
	 D(2,6,9,12)      =         3.141477	     179.993367
	 D(2,6,9,13)      =         1.027013	      58.843485
	 D(2,6,9,14)      =        -1.027630	     -58.878884
	 D(3,1,2,6)       =         3.141551	     179.997606
	 D(3,1,2,7)       =         1.020950	      58.496115
	 D(3,1,2,8)       =        -1.020897	     -58.493099
	 D(4,1,2,6)       =         1.047123	      59.995718
	 D(4,1,2,7)       =        -1.073478	     -61.505773
	 D(4,1,2,8)       =        -3.115325	    -178.494987
	 D(5,1,2,6)       =        -1.047263	     -60.003768
	 D(5,1,2,7)       =         3.115321	     178.494741
	 D(5,1,2,8)       =         1.073474	      61.505527
	 D(6,9,12,15)     =        -3.138429	    -179.818734
	 D(6,9,12,19)     =         0.003000	       0.171887
	 D(7,2,6,9)       =        -1.018991	     -58.383904
	 D(7,2,6,10)      =        -3.138460	    -179.820499
	 D(7,2,6,11)      =         1.100371	      63.046589
	 D(8,2,6,9)       =         1.022872	      58.606223
	 D(8,2,6,10)      =        -1.096597	     -62.830372
	 D(8,2,6,11)      =        -3.140952	    -179.963284
	 D(9,12,15,16)    =        -1.035886	     -59.351872
	 D(9,12,15,17)    =        -3.137542	    -179.767927
	 D(9,12,15,18)    =         1.044421	      59.840911
	 D(10,6,9,12)     =        -1.018671	     -58.365560
	 D(10,6,9,13)     =        -3.133136	    -179.515442
	 D(10,6,9,14)     =         1.095407	      62.762189
	 D(11,6,9,12)     =         1.018604	      58.361692
	 D(11,6,9,13)     =        -1.095861	     -62.788190
	 D(11,6,9,14)     =         3.132682	     179.489442
	 D(13,9,12,15)    =        -1.005613	     -57.617377
	 D(13,9,12,19)    =         2.135816	     122.373244
	 D(14,9,12,15)    =         1.012309	      58.001026
	 D(14,9,12,19)    =        -2.129447	    -122.008353
	 D(16,15,12,19)   =         2.105870	     120.657454
	 D(17,15,12,19)   =         0.004213	       0.241398
	 D(18,15,12,19)   =        -2.097009	    -120.149764

	Current energy   :      -305.2774103542

	Energy change for the previous step:
		Projected    :        -0.0000023075
		Actual       :        -0.0000001810
	Energy ratio indicates iffy step: Trust radius decreased to 1.758e-02.


	Performing BFGS update.
	Previous computed or guess Hessian on step 1.
	Steps to be used in Hessian update: 10 9
	Taking RFO optimization step.
	Going to follow RFO solution 1.
	Using RFO vector 1.
	Norm of target step-size    0.00800
	Projected energy change by RFO approximation:        -0.0000000021

	Back-transformation to cartesian coordinates...
	Could not converge backtransformation.
	Using first guess instead.

	--- Internal Coordinate Step in ANG or DEG, aJ/ANG or AJ/DEG ---
	 ---------------------------------------------------------------------------
	   Coordinate                Previous        Force       Change         New 
	   ----------                --------       ------       ------       ------
	    1 R(1,2)          =      1.541018     0.000032     0.000030     1.541049
	    2 R(1,3)          =      1.086016     0.000071     0.000030     1.086045
	    3 R(1,4)          =      1.085934     0.000207     0.000055     1.085989
	    4 R(1,5)          =      1.085928     0.000276     0.000065     1.085993
	    5 R(2,6)          =      1.544955     0.000178     0.000001     1.544956
	    6 R(2,7)          =      1.088600    -0.000004    -0.000001     1.088599
	    7 R(2,8)          =      1.088604    -0.000048     0.000001     1.088605
	    8 R(6,9)          =      1.542390     0.000030    -0.000020     1.542371
	    9 R(6,10)         =      1.088066    -0.000056     0.000004     1.088070
	   10 R(6,11)         =      1.088064    -0.000014     0.000006     1.088071
	   11 R(9,12)         =      1.548738     0.000015    -0.000013     1.548724
	   12 R(9,13)         =      1.089063    -0.000037     0.000003     1.089066
	   13 R(9,14)         =      1.089075     0.000029     0.000005     1.089080
	   14 R(12,15)        =      1.543617     0.000034    -0.000012     1.543605
	   15 R(12,19)        =      1.218303     0.000369     0.000024     1.218327
	   16 R(15,16)        =      1.086405     0.000011     0.000014     1.086419
	   17 R(15,17)        =      1.085084    -0.000061    -0.000002     1.085083
	   18 R(15,18)        =      1.086436    -0.000041     0.000002     1.086438
	   19 B(1,2,6)        =    112.319403     0.000000     0.000059   112.319462
	   20 B(1,2,7)        =    109.307036    -0.000000     0.003408   109.310445
	   21 B(1,2,8)        =    109.309644    -0.000000     0.002247   109.311892
	   22 B(2,1,3)        =    110.568966     0.000000    -0.001211   110.567754
	   23 B(2,1,4)        =    110.725431    -0.000000     0.001116   110.726546
	   24 B(2,1,5)        =    110.722175     0.000001     0.003547   110.725722
	   25 B(2,6,9)        =    112.215858     0.000001     0.002776   112.218634
	   26 B(2,6,10)       =    109.539444    -0.000000    -0.002938   109.536507
	   27 B(2,6,11)       =    109.532600     0.000000     0.003615   109.536215
	   28 B(3,1,4)        =    108.271638    -0.000000    -0.002327   108.269311
	   29 B(3,1,5)        =    108.270727    -0.000000    -0.001738   108.268989
	   30 B(4,1,5)        =    108.189704    -0.000000     0.000461   108.190165
	   31 B(6,2,7)        =    109.306777     0.000000     0.001472   109.308250
	   32 B(6,2,8)        =    109.311501    -0.000000    -0.002854   109.308646
	   33 B(6,9,12)       =    112.654187     0.000001     0.000174   112.654361
	   34 B(6,9,13)       =    110.210084    -0.000001    -0.003496   110.206588
	   35 B(6,9,14)       =    110.199838    -0.000000     0.001124   110.200962
	   36 B(7,2,8)        =    107.150069    -0.000000    -0.004565   107.145504
	   37 B(9,6,10)       =    109.182304    -0.000000    -0.002802   109.179502
	   38 B(9,6,11)       =    109.181246    -0.000000     0.001002   109.182248
	   39 B(9,12,15)      =    115.092543    -0.000000    -0.001875   115.090669
	   40 B(9,12,19)      =    122.709642    -0.000000     0.000680   122.710321
	   41 B(10,6,11)      =    107.051770    -0.000000    -0.001881   107.049888
	   42 B(12,9,13)      =    108.355781    -0.000000    -0.002316   108.353464
	   43 B(12,9,14)      =    108.344176    -0.000000     0.002154   108.346330
	   44 B(12,15,16)     =    110.160195     0.000001    -0.001385   110.158810
	   45 B(12,15,17)     =    110.215490     0.000000    -0.000664   110.214826
	   46 B(12,15,18)     =    110.147474     0.000001     0.001328   110.148802
	   47 B(13,9,14)      =    106.882496     0.000000     0.002527   106.885023
	   48 B(15,12,19)     =    122.197814     0.000000     0.001194   122.199009
	   49 B(16,15,17)     =    109.080008    -0.000001    -0.002982   109.077026
	   50 B(16,15,18)     =    108.127960    -0.000000     0.002868   108.130828
	   51 B(17,15,18)     =    109.066564    -0.000000     0.000877   109.067441
	   52 D(1,2,6,9)      =   -179.885543    -0.000000    -0.133003  -180.018546
	   53 D(1,2,6,10)     =     58.677863    -0.000000    -0.129252    58.548611
	   54 D(1,2,6,11)     =    -58.455050    -0.000000    -0.127370   -58.582420
	   55 D(2,6,9,12)     =    179.993367     0.000000     0.028711   180.022078
	   56 D(2,6,9,13)     =     58.843485     0.000000     0.034042    58.877526
	   57 D(2,6,9,14)     =    -58.878884     0.000000     0.032385   -58.846499
	   58 D(3,1,2,6)      =    179.997606     0.000000     0.014070   180.011676
	   59 D(3,1,2,7)      =     58.496115    -0.000000     0.009791    58.505906
	   60 D(3,1,2,8)      =    -58.493099     0.000000     0.012054   -58.481044
	   61 D(4,1,2,6)      =     59.995718     0.000000     0.017048    60.012765
	   62 D(4,1,2,7)      =    -61.505773    -0.000000     0.012769   -61.493004
	   63 D(4,1,2,8)      =   -178.494987     0.000000     0.015032  -178.479955
	   64 D(5,1,2,6)      =    -60.003768     0.000000     0.013414   -59.990354
	   65 D(5,1,2,7)      =    178.494741    -0.000000     0.009135   178.503876
	   66 D(5,1,2,8)      =     61.505527     0.000000     0.011399    61.516926
	   67 D(6,9,12,15)    =   -179.818734    -0.000000    -0.068112  -179.886846
	   68 D(6,9,12,19)    =      0.171887     0.000000    -0.070555     0.101332
	   69 D(7,2,6,9)      =    -58.383904    -0.000000    -0.127618   -58.511522
	   70 D(7,2,6,10)     =   -179.820499    -0.000000    -0.123866  -179.944365
	   71 D(7,2,6,11)     =     63.046589     0.000000    -0.121984    62.924604
	   72 D(8,2,6,9)      =     58.606223    -0.000000    -0.133904    58.472319
	   73 D(8,2,6,10)     =    -62.830372    -0.000000    -0.130153   -62.960524
	   74 D(8,2,6,11)     =   -179.963284    -0.000000    -0.128271  -180.091555
	   75 D(9,12,15,16)   =    -59.351872    -0.000000    -0.063823   -59.415695
	   76 D(9,12,15,17)   =   -179.767927     0.000000    -0.058797  -179.826725
	   77 D(9,12,15,18)   =     59.840911    -0.000000    -0.060315    59.780595
	   78 D(10,6,9,12)    =    -58.365560     0.000000     0.024880   -58.340680
	   79 D(10,6,9,13)    =   -179.515442     0.000000     0.030210  -179.485232
	   80 D(10,6,9,14)    =     62.762189     0.000000     0.028553    62.790743
	   81 D(11,6,9,12)    =     58.361692    -0.000000     0.021606    58.383298
	   82 D(11,6,9,13)    =    -62.788190    -0.000000     0.026937   -62.761253
	   83 D(11,6,9,14)    =    179.489442     0.000000     0.025280   179.514721
	   84 D(13,9,12,15)   =    -57.617377    -0.000000    -0.074052   -57.691429
	   85 D(13,9,12,19)   =    122.373244    -0.000000    -0.076495   122.296750
	   86 D(14,9,12,15)   =     58.001026    -0.000000    -0.071160    57.929866
	   87 D(14,9,12,19)   =   -122.008353    -0.000000    -0.073603  -122.081956
	   88 D(16,15,12,19)  =    120.657454    -0.000000    -0.061394   120.596060
	   89 D(17,15,12,19)  =      0.241398    -0.000000    -0.056368     0.185030
	   90 D(18,15,12,19)  =   -120.149764    -0.000000    -0.057886  -120.207650
	 ---------------------------------------------------------------------------
	Successfully symmetrized geometry.

  ==> Convergence Check <==

  Measures of convergence in internal coordinates in au.
  Criteria marked as inactive (o), active & met (*), and active & unmet ( ).
  ---------------------------------------------------------------------------------------------
   Step     Total Energy     Delta E     MAX Force     RMS Force      MAX Disp      RMS Disp   
  ---------------------------------------------------------------------------------------------
    Convergence Criteria    1.00e-06 *    3.00e-04 *             o    1.20e-03 *             o
  ---------------------------------------------------------------------------------------------
     11    -305.27741035   -1.81e-07 *    4.47e-05 *    8.55e-06 o    2.34e-03      8.44e-04 o  ~
  ---------------------------------------------------------------------------------------------


  **** Optimization is complete! (in 11 steps) ****

  ==> Optimization Summary <==

  Measures of convergence in internal coordinates in au.
  --------------------------------------------------------------------------------------------------------------- ~
   Step         Total Energy             Delta E       MAX Force       RMS Force        MAX Disp        RMS Disp  ~
  --------------------------------------------------------------------------------------------------------------- ~
      1    -305.269087434807   -305.269087434807      0.02875488      0.00623768      0.08767758      0.02836513  ~
      2    -305.272732327253     -0.003644892446      0.01290631      0.00266616      0.14181456      0.04487729  ~
      3    -305.274286360008     -0.001554032754      0.00751548      0.00138892      0.16406924      0.05262510  ~
      4    -305.275189598747     -0.000903238739      0.00962025      0.00193172      0.16539599      0.05260082  ~
      5    -305.276006690397     -0.000817091651      0.01335518      0.00256015      0.16634508      0.05277990  ~
      6    -305.276663061677     -0.000656371280      0.01123481      0.00229563      0.03906726      0.01317237  ~
      7    -305.277280959084     -0.000617897407      0.00552895      0.00082855      0.06950624      0.02172672  ~
      8    -305.277391441213     -0.000110482130      0.00195141      0.00037554      0.01162989      0.00422233  ~
      9    -305.277407624727     -0.000016183514      0.00066924      0.00012654      0.00724294      0.00255123  ~
     10    -305.277410173166     -0.000002548439      0.00012337      0.00002494      0.00462234      0.00156381  ~
     11    -305.277410354213     -0.000000181047      0.00004473      0.00000855      0.00233707      0.00084381  ~
  --------------------------------------------------------------------------------------------------------------- ~

	Writing optimization data to binary file.
	Final energy is   -305.2774103542132
	Final (previous) structure:
	Cartesian Geometry (in Angstrom)
	    C    -3.4586969086   0.4124926622   0.0700844631
	    C    -2.2370555755  -0.5258523081   0.1129686068
	    H    -4.3802206862  -0.1571836714   0.1455339922
	    H    -3.4801806458   0.9731587995  -0.8596711337
	    H    -3.4281004144   1.1209427627   0.8925213593
	    C    -0.9017863057   0.2441981907   0.0082585052
	    H    -2.3045048376  -1.2420973160  -0.7040339722
	    H    -2.2526493550  -1.0949204454   1.0408572561
	    C     0.3191576287  -0.6974165988   0.0485755702
	    H    -0.8289939979   0.9591762418   0.8252010702
	    H    -0.8826473071   0.8149405477  -0.9179008232
	    C     1.6636007305   0.0642579910  -0.0558901597
	    H     0.2675020630  -1.4156552468  -0.7684454695
	    H     0.3212393276  -1.2710642139   0.9743230965
	    C     2.9243488102  -0.8258796382  -0.0254999986
	    H     2.9589658527  -1.3945720422   0.8995227696
	    H     3.8173196121  -0.2138547052  -0.0992359409
	    H     2.9063301798  -1.5286107580  -0.8538644952
	    O     1.7273072740   1.2768405650  -0.1551286456
	Saving final (previous) structure.
			--------------------------
			 OPTKING Finished Execution 
			--------------------------

    Final optimized geometry and variables:
    Molecular point group: c1
    Full point group: C1

    Geometry (in Angstrom), charge = 0, multiplicity = 1:

    C           -3.458696908624     0.412492662240     0.070084463059
    C           -2.237055575536    -0.525852308145     0.112968606845
    H           -4.380220686215    -0.157183671418     0.145533992178
    H           -3.480180645777     0.973158799537    -0.859671133698
    H           -3.428100414377     1.120942762744     0.892521359282
    C           -0.901786305695     0.244198190668     0.008258505155
    H           -2.304504837610    -1.242097316025    -0.704033972224
    H           -2.252649354996    -1.094920445443     1.040857256136
    C            0.319157628695    -0.697416598760     0.048575570212
    H           -0.828993997899     0.959176241819     0.825201070232
    H           -0.882647307080     0.814940547674    -0.917900823187
    C            1.663600730509     0.064257991017    -0.055890159714
    H            0.267502062996    -1.415655246814    -0.768445469462
    H            0.321239327576    -1.271064213865     0.974323096499
    C            2.924348810205    -0.825879638174    -0.025499998597
    H            2.958965852657    -1.394572042176     0.899522769563
    H            3.817319612098    -0.213854705155    -0.099235940870
    H            2.906330179828    -1.528610757975    -0.853864495158
    O            1.727307274036     1.276840564972    -0.155128645610

	Cleaning optimization helper files.

*** Psi4 exiting successfully. Buy a developer a beer!
