
    -----------------------------------------------------------------------
          Psi4: An Open-Source Ab Initio Electronic Structure Package
                               Psi4 1.1rc1 

                         Git: Rev {HEAD} 6db9b1f 


    R. M. Parrish, L. A. Burns, D. G. A. Smith, A. C. Simmonett,
    A. E. DePrince III, E. G. Hohenstein, U. Bozkaya, A. Yu. Sokolov,
    R. Di Remigio, R. M. Richard, J. F. Gonthier, A. M. James,
    H. R. McAlexander, A. Kumar, M. Saitow, X. Wang, B. P. Pritchard,
    P. Verma, H. F. Schaefer III, K. Patkowski, R. A. King, E. F. Valeev,
    F. A. Evangelista, J. M. Turney, T. D. Crawford, and C. D. Sherrill,
    submitted.

    -----------------------------------------------------------------------


    Psi4 started on: Thursday, 06 December 2018 04:37PM

    Process ID:   4786
    PSIDATADIR: /home/hrgrimsl/psi4conda/share/psi4
    Memory:     500.0 MiB
    Threads:    1
    
  ==> Input File <==

--------------------------------------------------------------------------
# PYTHONPATH must include directory above plugin directory.
#     Define either externally or here, then import plugin.
sys.path.insert(0, '.')

import os

#Set this up like a dictionary
SI = {
'name': 'nv_diamond',
'basis': 'sto-3g/sto-3g',
'frags': '-1/1',
'methods': 'scf/scf',
'scratch': 'scr',
'envir': 'local'
}

sifile = open('SI.txt', 'w')
sifile.write(SI['name']+'\n')
sifile.write(SI['frags']+'\n')
sifile.write(SI['methods']+'\n')
sifile.write(SI['basis']+'\n')
sifile.write(SI['scratch']+'\n')
sifile.write(SI['envir']+'\n')
sifile.close()
import scf_template

molecule {
0 2
   C       -3.14888       -3.35965       -3.12463
   C       -3.14888       -1.57625       -1.34123
   C       -1.36548       -1.57625       -3.12463
   C       -1.36548        0.20714       -1.34123
   N       -0.47379       -2.46795       -0.44954
   C       -2.25718       -2.46795       -2.23293
   C       -2.25718       -0.68456       -0.44954
   C       -0.47379       -0.68456       -2.23293
   C       -1.36548       -3.35965       -1.34123
   C       -3.14888       -3.35965        0.44216
   C       -3.14888       -1.57625        2.22555
   C       -1.36548        0.20714        2.22555
   C       -0.47379       -2.46795        3.11725
   C       -2.25718       -2.46795        1.33386
   C       -2.25718       -0.68456        3.11725
   C       -0.47379       -0.68456        1.33386
   C       -1.36548       -3.35965        2.22555
   C       -3.14888        0.20714       -3.12463
   C       -3.14888        1.99053       -1.34123
   C       -1.36548        1.99053       -3.12463
   C       -1.36548        3.77393       -1.34123
   C       -0.47379        1.09884       -0.44954
   C       -2.25718        1.09884       -2.23293
   C       -2.25718        2.88223       -0.44954
   C       -0.47379        2.88223       -2.23293
   C       -3.14888        0.20714        0.44216
   C       -3.14888        1.99053        2.22555
   C       -1.36548        1.99053        0.44216
   C       -1.36549        3.77393        2.22555
   C       -0.47379        1.09884        3.11725
   C       -2.25718        1.09884        1.33386
   C       -2.25718        2.88223        3.11725
   C       -0.47379        2.88223        1.33386
   C        0.41791       -3.35965       -3.12463
   C        0.41791       -1.57625       -1.34123
   C        2.20130       -1.57625       -3.12463
   C        2.20130        0.20714       -1.34123
   C        3.09300       -2.46795       -0.44954
   C        1.30961       -2.46795       -2.23293
   C        1.30961       -0.68456       -0.44954
   C        3.09300       -0.68456       -2.23293
   C        2.20130       -3.35965       -1.34123
   C        0.41791       -3.35965        0.44216
   C        0.41791       -1.57625        2.22555
   C        2.20130       -1.57625        0.44216
   C        2.20130        0.20714        2.22555
   C        3.09300       -2.46795        3.11725
   C        1.30961       -2.46795        1.33386
   C        1.30961       -0.68456        3.11725
   C        3.09300       -0.68456        1.33386
   C        2.20130       -3.35965        2.22555
   C        0.41791        0.20714       -3.12463
   C        0.41791        1.99053       -1.34123
   C        2.20130        1.99053       -3.12463
   C        2.20130        3.77393       -1.34123
   C        3.09300        1.09884       -0.44954
   C        1.30961        1.09884       -2.23293
   C        1.30961        2.88223       -0.44954
   C        3.09300        2.88223       -2.23293
   C        0.41791        0.20714        0.44216
   C        0.41791        1.99053        2.22555
   C        2.20130        1.99053        0.44216
   C        2.20130        3.77393        2.22555
   C        3.09300        1.09884        3.11725
   C        1.30961        1.09884        1.33386
   C        1.30961        2.88223        3.11725
   C        3.09300        2.88223        1.33386
   H       -3.76664       -2.74188       -3.74239
   H       -3.76665       -3.97742       -2.50687
   H       -2.53112       -3.97742       -3.74240
   H       -3.76665       -2.19402       -0.72347
   H       -3.76664       -0.95849       -1.95900
   H       -1.98325       -0.95849       -3.74240
   H       -0.74772       -2.19402       -3.74239
   H       -1.98325       -3.97742       -0.72347
   H       -0.74772       -3.97741       -1.95900
   H       -3.76664       -2.74188       -0.17560
   H       -3.76665       -3.97742        1.05992
   H       -2.53112       -3.97742       -0.17561
   H       -3.76665       -2.19402        2.84332
   H       -3.76664       -0.95849        1.60779
   H        0.14398       -3.08572        3.73502
   H       -1.09155       -1.85019        3.73502
   H       -2.57980       -1.00717        4.08510
   H       -1.98325       -3.97742        2.84332
   H       -0.74772       -3.97741        1.60779
   H       -3.76664        0.82491       -3.74239
   H       -3.76665       -0.41063       -2.50687
   H       -2.53112       -0.41063       -3.74240
   H       -3.76665        1.37277       -0.72347
   H       -3.76664        2.60830       -1.95900
   H       -1.98325        2.60830       -3.74240
   H       -0.74772        1.37277       -3.74239
   H       -0.74772        4.39169       -0.72347
   H       -1.98325        4.39170       -1.95900
   H       -2.87495        3.50000        0.16823
   H        0.14398        3.50000       -2.85070
   H       -3.76665       -0.41063        1.05992
   H       -3.76664        0.82490       -0.17561
   H       -3.76665        1.37277        2.84332
   H       -3.76665        2.60830        1.60779
   H       -0.74772        4.39169        2.84332
   H       -1.98325        4.39169        1.60779
   H       -0.15117        1.42145        4.08510
   H       -1.63942        2.26447        3.73502
   H       -2.87495        3.50000        3.73502
   H        0.14398        3.50000        0.71609
   H       -0.19985       -2.74188       -3.74239
   H       -0.19986       -3.97742       -2.50687
   H        1.03567       -3.97742       -3.74240
   H        1.58354       -0.95849       -3.74240
   H        2.81907       -2.19402       -3.74239
   H        3.71077       -1.85019       -1.06730
   H        3.71077       -3.08572        0.16823
   H        4.06085       -1.00717       -2.55555
   H        1.58354       -3.97742       -0.72347
   H        2.81907       -3.97741       -1.95900
   H        1.03567       -3.97742       -0.17561
   H       -0.19986       -3.97741        1.05992
   H        3.71077       -3.08572        3.73502
   H        2.47524       -1.85019        3.73502
   H        3.71077       -1.85019        2.49949
   H        0.98699       -1.00717        4.08510
   H        4.06085       -1.00717        1.01124
   H        1.58354       -3.97742        2.84332
   H        2.81907       -3.97741        1.60779
   H       -0.19986        0.82490       -3.74240
   H        1.03567       -0.41063       -3.74239
   H        1.58354        2.60830       -3.74240
   H        2.81907        1.37277       -3.74239
   H        1.58354        4.39169       -1.95900
   H        2.81907        4.39169       -0.72347
   H        4.06085        1.42145       -0.12692
   H        0.69184        3.50000        0.16823
   H        3.71077        3.50000       -2.85070
   H        3.71077        2.26447       -1.61517
   H        2.81907        4.39169        2.84332
   H        1.58354        4.39169        1.60779
   H        3.73151        1.67287        3.75576
   H        1.92737        2.26447        3.73502
   H        0.69184        3.50000        3.73502
   H        3.71077        3.50000        0.71609
   H        3.71077        2.26447        1.95162
   H       -1.60458       -0.03200        3.65870
   H       -1.12640        0.44628        3.65871
   H        3.63446       -0.03200       -1.58034
   H        1.96221       -0.03201        3.65871
   H        3.63446       -0.03201        1.98646
   H        3.63446        0.44628       -1.10215
   H        2.23189        1.61186        3.49166
   H        3.95721        0.61623        2.71087
}

optimize('scf_template')
--------------------------------------------------------------------------
gradient() will perform analytic gradient computation.
   => Loading Basis Set <=

    Name: STO-3G
    Role: ORBITAL
    Keyword: BASIS
    atoms 1-4, 6-67 entry C          line    60 file /home/hrgrimsl/psi4conda/share/psi4/basis/sto-3g.gbs 
    atoms 5         entry N          line    70 file /home/hrgrimsl/psi4conda/share/psi4/basis/sto-3g.gbs 
    atoms 68-151    entry H          line    18 file /home/hrgrimsl/psi4conda/share/psi4/basis/sto-3g.gbs 


			-----------------------------------------
			 OPTKING 2.0: for geometry optimizations 
			  - R.A. King,  Bethel University        
			-----------------------------------------

	Internal coordinates to be generated automatically.
	Detected frag 1 with atoms:  1 2 3 4 5 6 7 8 9 10 11 12 13 14 15 16 17 18 19 20
	 21 22 23 24 25 26 27 28 29 30 31 32 33 34 35 36 37 38 39 40
	 41 42 43 44 45 46 47 48 49 50 51 52 53 54 55 56 57 58 59 60
	 61 62 63 64 65 66 67 68 69 70 71 72 73 74 75 76 77 78 79 80
	 81 82 83 84 85 86 87 88 89 90 91 92 93 94 95 96 97 98 99 100
	 101 102 103 104 105 106 107 108 109 110 111 112 113 114 115 116 117 118 119 120
	 121 122 123 124 125 126 127 128 129 130 131 132 133 134 135 136 137 138 139 140
	 141 142 143 144 145 146 147 148 149 150 151
	---Fragment 1 Bond Connectivity---
	 1 : 6 68 69 70
	 2 : 6 7 71 72
	 3 : 6 8 73 74
	 4 : 7 8 22 23
	 5 : 9 35 43
	 6 : 1 2 3 9
	 7 : 2 4 26
	 8 : 3 4 35 52
	 9 : 5 6 75 76
	 10 : 14 77 78 79
	 11 : 14 15 80 81
	 12 : 15 16 30 31
	 13 : 17 44 82 83
	 14 : 10 11 17
	 15 : 11 12 84 144
	 16 : 12 44 60
	 17 : 13 14 85 86
	 18 : 23 87 88 89
	 19 : 23 24 90 91
	 20 : 23 25 92 93
	 21 : 24 25 94 95
	 22 : 4 28 53 60
	 23 : 4 18 19 20
	 24 : 19 21 28 96
	 25 : 20 21 53 97
	 26 : 7 31 98 99
	 27 : 31 32 100 101
	 28 : 22 24 31 33
	 29 : 32 33 102 103
	 30 : 12 61 104 145
	 31 : 12 26 27 28
	 32 : 27 29 105 106
	 33 : 28 29 61 107
	 34 : 39 108 109 110
	 35 : 5 8 39 40
	 36 : 39 41 111 112
	 37 : 40 41 56 57
	 38 : 42 45 113 114
	 39 : 34 35 36 42
	 40 : 35 37 45 60
	 41 : 36 37 115 146
	 42 : 38 39 116 117
	 43 : 5 48 118 119
	 44 : 13 16 48 49
	 45 : 38 40 48 50
	 46 : 49 50 64 65
	 47 : 51 120 121 122
	 48 : 43 44 45 51
	 49 : 44 46 123 147
	 50 : 45 46 124 148
	 51 : 47 48 125 126
	 52 : 8 57 127 128
	 53 : 22 25 57 58
	 54 : 57 59 129 130
	 55 : 58 59 131 132
	 56 : 37 62 133 149
	 57 : 37 52 53 54
	 58 : 53 55 62 134
	 59 : 54 55 135 136
	 60 : 16 22 40 65
	 61 : 30 33 65 66
	 62 : 56 58 65 67
	 63 : 66 67 137 138
	 64 : 46 139 150 151
	 65 : 46 60 61 62
	 66 : 61 63 140 141
	 67 : 62 63 142 143
	 68 : 1
	 69 : 1
	 70 : 1
	 71 : 2 77
	 72 : 2 88
	 73 : 3 89
	 74 : 3 108
	 75 : 9 79
	 76 : 9 109
	 77 : 10 71
	 78 : 10
	 79 : 10 75
	 80 : 11
	 81 : 11 98
	 82 : 13
	 83 : 13
	 84 : 15
	 85 : 17
	 86 : 17 119
	 87 : 18
	 88 : 18 72
	 89 : 18 73
	 90 : 19 99
	 91 : 19
	 92 : 20
	 93 : 20 127
	 94 : 21
	 95 : 21
	 96 : 24
	 97 : 25
	 98 : 26 81
	 99 : 26 90
	 100 : 27
	 101 : 27
	 102 : 29
	 103 : 29
	 104 : 30
	 105 : 32
	 106 : 32
	 107 : 33 134
	 108 : 34 74
	 109 : 34 76
	 110 : 34
	 111 : 36 128
	 112 : 36
	 113 : 38
	 114 : 38
	 115 : 41
	 116 : 42 118
	 117 : 42
	 118 : 43 116
	 119 : 43 86
	 120 : 47
	 121 : 47
	 122 : 47
	 123 : 49
	 124 : 50
	 125 : 51
	 126 : 51
	 127 : 52 93
	 128 : 52 111
	 129 : 54
	 130 : 54
	 131 : 55
	 132 : 55
	 133 : 56
	 134 : 58 107
	 135 : 59
	 136 : 59
	 137 : 63
	 138 : 63
	 139 : 64
	 140 : 66 150
	 141 : 66
	 142 : 67
	 143 : 67
	 144 : 15 145
	 145 : 30 144
	 146 : 41 149
	 147 : 49
	 148 : 50
	 149 : 56 146
	 150 : 64 140
	 151 : 64

	---Fragment 1 Geometry and Gradient---
	 C          -5.9854295997       -6.3552239597       -5.9399487308
	 C          -5.9854295997       -2.9850863743       -2.5698111455
	 C          -2.6152920143       -2.9850863743       -5.9399487308
	 C          -2.6152920143        0.3850323138       -2.5698111455
	 N          -0.9302421189       -4.6701551670       -0.8847612500
	 C          -4.3003608070       -4.6701551670       -4.2548799382
	 C          -4.3003608070       -1.3000364789       -0.8847612500
	 C          -0.9302421189       -1.3000364789       -4.2548799382
	 C          -2.6152920143       -6.3552239597       -2.5698111455
	 C          -5.9854295997       -6.3552239597        0.8003075427
	 C          -5.9854295997       -2.9850863743        4.1704262308
	 C          -2.6152920143        0.3850323138        4.1704262308
	 C          -0.9302421189       -4.6701551670        5.8554950235
	 C          -4.3003608070       -4.6701551670        2.4853763354
	 C          -4.3003608070       -1.3000364789        5.8554950235
	 C          -0.9302421189       -1.3000364789        2.4853763354
	 C          -2.6152920143       -6.3552239597        4.1704262308
	 C          -5.9854295997        0.3850323138       -5.9399487308
	 C          -5.9854295997        3.7551510019       -2.5698111455
	 C          -2.6152920143        3.7551510019       -5.9399487308
	 C          -2.6152920143        7.1252885873       -2.5698111455
	 C          -0.9302421189        2.0701011065       -0.8847612500
	 C          -4.3003608070        2.0701011065       -4.2548799382
	 C          -4.3003608070        5.4402197946       -0.8847612500
	 C          -0.9302421189        5.4402197946       -4.2548799382
	 C          -5.9854295997        0.3850323138        0.8003075427
	 C          -5.9854295997        3.7551510019        4.1704262308
	 C          -2.6152920143        3.7551510019        0.8003075427
	 C          -2.6153109116        7.1252885873        4.1704262308
	 C          -0.9302421189        2.0701011065        5.8554950235
	 C          -4.3003608070        2.0701011065        2.4853763354
	 C          -4.3003608070        5.4402197946        5.8554950235
	 C          -0.9302421189        5.4402197946        2.4853763354
	 C           0.7548266738       -6.3552239597       -5.9399487308
	 C           0.7548266738       -2.9850863743       -2.5698111455
	 C           4.1249453619       -2.9850863743       -5.9399487308
	 C           4.1249453619        0.3850323138       -2.5698111455
	 C           5.8100141546       -4.6701551670       -0.8847612500
	 C           2.4398954665       -4.6701551670       -4.2548799382
	 C           2.4398954665       -1.3000364789       -0.8847612500
	 C           5.8100141546       -1.3000364789       -4.2548799382
	 C           4.1249453619       -6.3552239597       -2.5698111455
	 C           0.7548266738       -6.3552239597        0.8003075427
	 C           0.7548266738       -2.9850863743        4.1704262308
	 C           4.1249453619       -2.9850863743        0.8003075427
	 C           4.1249453619        0.3850323138        4.1704262308
	 C           5.8100141546       -4.6701551670        5.8554950235
	 C           2.4398954665       -4.6701551670        2.4853763354
	 C           2.4398954665       -1.3000364789        5.8554950235
	 C           5.8100141546       -1.3000364789        2.4853763354
	 C           4.1249453619       -6.3552239597        4.1704262308
	 C           0.7548266738        0.3850323138       -5.9399487308
	 C           0.7548266738        3.7551510019       -2.5698111455
	 C           4.1249453619        3.7551510019       -5.9399487308
	 C           4.1249453619        7.1252885873       -2.5698111455
	 C           5.8100141546        2.0701011065       -0.8847612500
	 C           2.4398954665        2.0701011065       -4.2548799382
	 C           2.4398954665        5.4402197946       -0.8847612500
	 C           5.8100141546        5.4402197946       -4.2548799382
	 C           0.7548266738        0.3850323138        0.8003075427
	 C           0.7548266738        3.7551510019        4.1704262308
	 C           4.1249453619        3.7551510019        0.8003075427
	 C           4.1249453619        7.1252885873        4.1704262308
	 C           5.8100141546        2.0701011065        5.8554950235
	 C           2.4398954665        2.0701011065        2.4853763354
	 C           2.4398954665        5.4402197946        5.8554950235
	 C           5.8100141546        5.4402197946        2.4853763354
	 H          -7.1528268156       -5.1878078466       -7.1073459467
	 H          -7.1528457128       -7.5226400728       -4.7725515150
	 H          -4.8180323839       -7.5226400728       -7.1073648440
	 H          -7.1528457128       -4.1525024875       -1.4024139296
	 H          -7.1528268156       -1.8176891585       -3.7372272586
	 H          -3.7827081275       -1.8176891585       -7.1073648440
	 H          -1.4478947985       -4.1525024875       -7.1073459467
	 H          -3.7827081275       -7.5226400728       -1.4024139296
	 H          -1.4478947985       -7.5226211756       -3.7372272586
	 H          -7.1528268156       -5.1878078466       -0.3670896732
	 H          -7.1528457128       -7.5226400728        1.9677047585
	 H          -4.8180323839       -7.5226400728       -0.3671085704
	 H          -7.1528457128       -4.1525024875        5.3378423439
	 H          -7.1528268156       -1.8176891585        3.0030290149
	 H           0.2371739942       -5.8375712801        7.0229111366
	 H          -2.0976393348       -3.5027579512        7.0229111366
	 H          -4.9100242520       -1.9096810266        7.6844664612
	 H          -3.7827081275       -7.5226400728        5.3378423439
	 H          -1.4478947985       -7.5226211756        3.0030290149
	 H          -7.1528268156        1.5524484269       -7.1073459467
	 H          -7.1528457128       -0.7823837993       -4.7725515150
	 H          -4.8180323839       -0.7823837993       -7.1073648440
	 H          -7.1528457128        2.5877537861       -1.4024139296
	 H          -7.1528268156        4.9225671150       -3.7372272586
	 H          -3.7827081275        4.9225671150       -7.1073648440
	 H          -1.4478947985        2.5877537861       -7.1073459467
	 H          -1.4478947985        8.2926858032       -1.4024139296
	 H          -3.7827081275        8.2927047004       -3.7372272586
	 H          -5.4677769202        6.6076359077        0.2826548631
	 H           0.2371739942        6.6076359077       -5.4222960513
	 H          -7.1528457128       -0.7823837993        1.9677047585
	 H          -7.1528268156        1.5524295296       -0.3671085704
	 H          -7.1528457128        2.5877537861        5.3378423439
	 H          -7.1528457128        4.9225671150        3.0030290149
	 H          -1.4478947985        8.2926858032        5.3378423439
	 H          -3.7827081275        8.2926858032        3.0030290149
	 H          -0.3205786739        2.6797456542        7.6844664612
	 H          -3.1329635912        4.2728225788        7.0229111366
	 H          -5.4677769202        6.6076359077        7.0229111366
	 H           0.2371739942        6.6076359077        1.3179602223
	 H          -0.4125705421       -5.1878078466       -7.1073459467
	 H          -0.4125894393       -7.5226400728       -4.7725515150
	 H           1.9222238896       -7.5226400728       -7.1073648440
	 H           2.9575481461       -1.8176891585       -7.1073648440
	 H           5.2923614750       -4.1525024875       -7.1073459467
	 H           6.9774302677       -3.5027579512       -2.0521584659
	 H           6.9774302677       -5.8375712801        0.2826548631
	 H           7.6389855923       -1.9096810266       -4.8645433831
	 H           2.9575481461       -7.5226400728       -1.4024139296
	 H           5.2923614750       -7.5226211756       -3.7372272586
	 H           1.9222238896       -7.5226400728       -0.3671085704
	 H          -0.4125894393       -7.5226211756        1.9677047585
	 H           6.9774302677       -5.8375712801        7.0229111366
	 H           4.6426169388       -3.5027579512        7.0229111366
	 H           6.9774302677       -3.5027579512        4.6880978076
	 H           1.8302320215       -1.9096810266        7.6844664612
	 H           7.6389855923       -1.9096810266        1.8757128904
	 H           2.9575481461       -7.5226400728        5.3378423439
	 H           5.2923614750       -7.5226211756        3.0030290149
	 H          -0.4125894393        1.5524295296       -7.1073648440
	 H           1.9222238896       -0.7823837993       -7.1073459467
	 H           2.9575481461        4.9225671150       -7.1073648440
	 H           5.2923614750        2.5877537861       -7.1073459467
	 H           2.9575481461        8.2926858032       -3.7372272586
	 H           5.2923614750        8.2926858032       -1.4024139296
	 H           7.6389855923        2.6797456542       -0.2750978050
	 H           1.2724793534        6.6076359077        0.2826548631
	 H           6.9774302677        6.6076359077       -5.4222960513
	 H           6.9774302677        4.2728225788       -3.0874827223
	 H           5.2923614750        8.2926858032        5.3378423439
	 H           2.9575481461        8.2926858032        3.0030290149
	 H           7.0166231877        3.1548605985        7.0621040566
	 H           3.6072926823        4.2728225788        7.0229111366
	 H           1.2724793534        6.6076359077        7.0229111366
	 H           6.9774302677        6.6076359077        1.3179602223
	 H           6.9774302677        4.2728225788        3.6527735512
	 H          -3.0671255327       -0.0668767936        6.8786872381
	 H          -2.1634962905        0.8369414212        6.8787061354
	 H           6.8332252665       -0.0668767936       -3.0216635611
	 H           3.6731307408       -0.0668956909        6.8787061354
	 H           6.8332252665       -0.0668956909        3.7186116097
	 H           6.8332252665        0.8369414212       -2.1180154216
	 H           4.1827520843        3.0395684072        6.5630273849
	 H           7.4431343759        1.1581003775        5.0875481176
	             0.0000000000        0.0000000000        0.0000000000
	             0.0000000000        0.0000000000        0.0000000000
	             0.0000000000        0.0000000000        0.0000000000
	             0.0000000000        0.0000000000        0.0000000000
	             0.0000000000        0.0000000000        0.0000000000
	             0.0000000000        0.0000000000        0.0000000000
	             0.0000000000        0.0000000000        0.0000000000
	             0.0000000000        0.0000000000        0.0000000000
	             0.0000000000        0.0000000000        0.0000000000
	             0.0000000000        0.0000000000        0.0000000000
	             0.0000000000        0.0000000000        0.0000000000
	             0.0000000000        0.0000000000        0.0000000000
	            -0.1682706300       -0.1661474400        4.0023935500
	             0.0000000000        0.0000000000        0.0000000000
	             0.0000000000        0.0000000000        0.0000000000
	            -1.1858647900        0.6253213800       -0.6300799900
	            -0.6773845100       -0.6775109200       -1.1812124200
	             0.0000000000        0.0000000000        0.0000000000
	             0.0000000000        0.0000000000        0.0000000000
	             0.0000000000        0.0000000000        0.0000000000
	             0.0000000000        0.0000000000        0.0000000000
	             0.0000000000        0.0000000000        0.0000000000
	             0.0000000000        0.0000000000        0.0000000000
	             0.0000000000        0.0000000000        0.0000000000
	             0.0000000000        0.0000000000        0.0000000000
	             0.0000000000        0.0000000000        0.0000000000
	             0.0000000000        0.0000000000        0.0000000000
	             0.0000000000        0.0000000000        0.0000000000
	             0.0000000000        0.0000000000        0.0000000000
	             0.0000000000        0.0000000000        0.0000000000
	             0.0000000000        0.0000000000        0.0000000000
	             0.0000000000        0.0000000000        0.0000000000
	             0.0000000000        0.0000000000        0.0000000000
	             0.0000000000        0.0000000000        0.0000000000
	             0.0000000000        0.0000000000        0.0000000000
	             0.0000000000        0.0000000000        0.0000000000
	             0.0000000000        0.0000000000        0.0000000000
	             0.0000000000        0.0000000000        0.0000000000
	             0.0000000000        0.0000000000        0.0000000000
	             0.0000000000        0.0000000000        0.0000000000
	             0.0000000000        0.0000000000        0.0000000000
	             0.0000000000        0.0000000000        0.0000000000
	             0.0000000000        0.0000000000        0.0000000000
	            -0.0056838500       -0.0051834200        0.0849075700
	             0.0000000000        0.0000000000        0.0000000000
	             0.0000000000        0.0000000000        0.0000000000
	             0.0000000000        0.0000000000        0.0000000000
	             0.6256385900       -1.1859832600       -0.6302412200
	             0.6302502400        0.6300955500        1.1693044300
	             0.0000000000        0.0000000000        0.0000000000
	             0.0000000000        0.0000000000        0.0000000000
	             0.0000000000        0.0000000000        0.0000000000
	             0.0000000000        0.0000000000        0.0000000000
	             0.0000000000        0.0000000000        0.0000000000
	             0.0000000000        0.0000000000        0.0000000000
	             0.0000000000        0.0000000000        0.0000000000
	             0.0000000000        0.0000000000        0.0000000000
	             0.0000000000        0.0000000000        0.0000000000
	             0.0000000000        0.0000000000        0.0000000000
	             0.0000000000        0.0000000000        0.0000000000
	             0.0000000000        0.0000000000        0.0000000000
	             0.0000000000        0.0000000000        0.0000000000
	             0.0000000000        0.0000000000        0.0000000000
	             0.0000000000        0.0000000000        0.0000000000
	             0.0000000000        0.0000000000        0.0000000000
	             0.0000000000        0.0000000000        0.0000000000
	             0.0000000000        0.0000000000        0.0000000000
	             0.0000000000        0.0000000000        0.0000000000
	             0.0000000000        0.0000000000        0.0000000000
	             0.0000000000        0.0000000000        0.0000000000
	             0.0000000000        0.0000000000        0.0000000000
	             0.0000000000        0.0000000000        0.0000000000
	             0.0000000000        0.0000000000        0.0000000000
	             0.0000000000        0.0000000000        0.0000000000
	             0.0000000000        0.0000000000        0.0000000000
	             0.0000000000        0.0000000000        0.0000000000
	             0.0000000000        0.0000000000        0.0000000000
	             0.0000000000        0.0000000000        0.0000000000
	             0.0000000000        0.0000000000        0.0000000000
	             0.0000000000        0.0000000000        0.0000000000
	             0.0000000000        0.0000000000        0.0000000000
	            -0.7125185800        1.4928256700       -1.4071084400
	             1.4938335300       -0.7134175500       -1.4079634900
	             0.0000000000        0.0000000000        0.0000000000
	             0.0000000000        0.0000000000        0.0000000000
	             0.0000000000        0.0000000000        0.0000000000
	             0.0000000000        0.0000000000        0.0000000000
	             0.0000000000        0.0000000000        0.0000000000
	             0.0000000000        0.0000000000        0.0000000000
	             0.0000000000        0.0000000000        0.0000000000
	             0.0000000000        0.0000000000        0.0000000000
	             0.0000000000        0.0000000000        0.0000000000
	             0.0000000000        0.0000000000        0.0000000000
	             0.0000000000        0.0000000000        0.0000000000
	             0.0000000000        0.0000000000        0.0000000000
	             0.0000000000        0.0000000000        0.0000000000
	             0.0000000000        0.0000000000        0.0000000000
	             0.0000000000        0.0000000000        0.0000000000
	             0.0000000000        0.0000000000        0.0000000000
	             0.0000000000        0.0000000000        0.0000000000
	             0.0000000000        0.0000000000        0.0000000000
	             0.0000000000        0.0000000000        0.0000000000
	             0.0000000000        0.0000000000        0.0000000000
	             0.0000000000        0.0000000000        0.0000000000
	             0.0000000000        0.0000000000        0.0000000000
	             0.0000000000        0.0000000000        0.0000000000
	             0.0000000000        0.0000000000        0.0000000000
	             0.0000000000        0.0000000000        0.0000000000
	             0.0000000000        0.0000000000        0.0000000000
	             0.0000000000        0.0000000000        0.0000000000
	             0.0000000000        0.0000000000        0.0000000000
	             0.0000000000        0.0000000000        0.0000000000
	             0.0000000000        0.0000000000        0.0000000000
	             0.0000000000        0.0000000000        0.0000000000
	             0.0000000000        0.0000000000        0.0000000000
	             0.0000000000        0.0000000000        0.0000000000
	             0.0000000000        0.0000000000        0.0000000000
	             0.0000000000        0.0000000000        0.0000000000
	             0.0000000000        0.0000000000        0.0000000000
	             0.0000000000        0.0000000000        0.0000000000
	             0.0000000000        0.0000000000        0.0000000000
	             0.0000000000        0.0000000000        0.0000000000
	             0.0000000000        0.0000000000        0.0000000000
	             0.0000000000        0.0000000000        0.0000000000
	             0.0000000000        0.0000000000        0.0000000000
	             0.0000000000        0.0000000000        0.0000000000
	             0.0000000000        0.0000000000        0.0000000000
	             0.0000000000        0.0000000000        0.0000000000
	             0.0000000000        0.0000000000        0.0000000000
	             0.0000000000        0.0000000000        0.0000000000
	             0.0000000000        0.0000000000        0.0000000000
	             0.0000000000        0.0000000000        0.0000000000
	             0.0000000000        0.0000000000        0.0000000000
	             0.0000000000        0.0000000000        0.0000000000
	             0.0000000000        0.0000000000        0.0000000000
	             0.0000000000        0.0000000000        0.0000000000
	             0.0000000000        0.0000000000        0.0000000000
	             0.0000000000        0.0000000000        0.0000000000
	             0.0000000000        0.0000000000        0.0000000000
	             0.0000000000        0.0000000000        0.0000000000
	             0.0000000000        0.0000000000        0.0000000000
	             0.0000000000        0.0000000000        0.0000000000
	             0.0000000000        0.0000000000        0.0000000000
	             0.0000000000        0.0000000000        0.0000000000
	             0.0000000000        0.0000000000        0.0000000000
	             0.0000000000        0.0000000000        0.0000000000
	             0.0000000000        0.0000000000        0.0000000000
	             0.0000000000        0.0000000000        0.0000000000
	             0.0000000000        0.0000000000        0.0000000000
	             0.0000000000        0.0000000000        0.0000000000
	             0.0000000000        0.0000000000        0.0000000000

	Previous optimization step data not found.  Starting new optimization.

	---Fragment 1 Intrafragment Coordinates---
	 - Coordinate -           - BOHR/RAD -       - ANG/DEG -
	 R(1,6)           =         2.918625	       1.544470
	 R(1,68)          =         2.022002	       1.069997
	 R(1,69)          =         2.022013	       1.070003
	 R(1,70)          =         2.022013	       1.070003
	 R(2,6)           =         2.918625	       1.544470
	 R(2,7)           =         2.918603	       1.544458
	 R(2,71)          =         2.022013	       1.070003
	 R(2,72)          =         2.022002	       1.069997
	 R(3,6)           =         2.918625	       1.544470
	 R(3,8)           =         2.918603	       1.544458
	 R(3,73)          =         2.022013	       1.070003
	 R(3,74)          =         2.022002	       1.069997
	 R(4,7)           =         2.918614	       1.544464
	 R(4,8)           =         2.918614	       1.544464
	 R(4,22)          =         2.918603	       1.544458
	 R(4,23)          =         2.918625	       1.544470
	 R(5,9)           =         2.918603	       1.544458
	 R(5,35)          =         2.918614	       1.544464
	 R(5,43)          =         2.918625	       1.544470
	 R(6,9)           =         2.918625	       1.544470
	 R(7,26)          =         2.918625	       1.544470
	 R(8,35)          =         2.918614	       1.544464
	 R(8,52)          =         2.918625	       1.544470
	 R(9,75)          =         2.022013	       1.070003
	 R(9,76)          =         2.022002	       1.069997
	 R(10,14)         =         2.918625	       1.544470
	 R(10,77)         =         2.022002	       1.069997
	 R(10,78)         =         2.022013	       1.070003
	 R(10,79)         =         2.022013	       1.070003
	 R(11,14)         =         2.918614	       1.544464
	 R(11,15)         =         2.918614	       1.544464
	 R(11,80)         =         2.022024	       1.070009
	 R(11,81)         =         2.021991	       1.069992
	 R(12,15)         =         2.918625	       1.544470
	 R(12,16)         =         2.918603	       1.544458
	 R(12,30)         =         2.918614	       1.544464
	 R(12,31)         =         2.918614	       1.544464
	 R(13,17)         =         2.918614	       1.544464
	 R(13,44)         =         2.918625	       1.544470
	 R(13,82)         =         2.022024	       1.070009
	 R(13,83)         =         2.022002	       1.069997
	 R(14,17)         =         2.918614	       1.544464
	 R(15,84)         =         2.022002	       1.069997
	 R(15,144)        =         2.021998	       1.069995
	 R(16,44)         =         2.918603	       1.544458
	 R(16,60)         =         2.918625	       1.544470
	 R(17,85)         =         2.022024	       1.070009
	 R(17,86)         =         2.021991	       1.069992
	 R(18,23)         =         2.918625	       1.544470
	 R(18,87)         =         2.022002	       1.069997
	 R(18,88)         =         2.022013	       1.070003
	 R(18,89)         =         2.022013	       1.070003
	 R(19,23)         =         2.918614	       1.544464
	 R(19,24)         =         2.918614	       1.544464
	 R(19,90)         =         2.022002	       1.069997
	 R(19,91)         =         2.022013	       1.070003
	 R(20,23)         =         2.918614	       1.544464
	 R(20,25)         =         2.918614	       1.544464
	 R(20,92)         =         2.022024	       1.070009
	 R(20,93)         =         2.021991	       1.069992
	 R(21,24)         =         2.918614	       1.544464
	 R(21,25)         =         2.918614	       1.544464
	 R(21,94)         =         2.021991	       1.069992
	 R(21,95)         =         2.022024	       1.070009
	 R(22,28)         =         2.918603	       1.544458
	 R(22,53)         =         2.918603	       1.544458
	 R(22,60)         =         2.918625	       1.544470
	 R(24,28)         =         2.918625	       1.544470
	 R(24,96)         =         2.022024	       1.070009
	 R(25,53)         =         2.918625	       1.544470
	 R(25,97)         =         2.022024	       1.070009
	 R(26,31)         =         2.918625	       1.544470
	 R(26,98)         =         2.022013	       1.070003
	 R(26,99)         =         2.022002	       1.069997
	 R(27,31)         =         2.918603	       1.544458
	 R(27,32)         =         2.918625	       1.544470
	 R(27,100)        =         2.022013	       1.070003
	 R(27,101)        =         2.022013	       1.070003
	 R(28,31)         =         2.918614	       1.544464
	 R(28,33)         =         2.918614	       1.544464
	 R(29,32)         =         2.918614	       1.544464
	 R(29,33)         =         2.918614	       1.544464
	 R(29,102)        =         2.022013	       1.070003
	 R(29,103)        =         2.021991	       1.069992
	 R(30,61)         =         2.918614	       1.544464
	 R(30,104)        =         2.022002	       1.069997
	 R(30,145)        =         2.022019	       1.070006
	 R(32,105)        =         2.022002	       1.069997
	 R(32,106)        =         2.022024	       1.070009
	 R(33,61)         =         2.918614	       1.544464
	 R(33,107)        =         2.022024	       1.070009
	 R(34,39)         =         2.918625	       1.544470
	 R(34,108)        =         2.022002	       1.069997
	 R(34,109)        =         2.022013	       1.070003
	 R(34,110)        =         2.022013	       1.070003
	 R(35,39)         =         2.918625	       1.544470
	 R(35,40)         =         2.918603	       1.544458
	 R(36,39)         =         2.918614	       1.544464
	 R(36,41)         =         2.918614	       1.544464
	 R(36,111)        =         2.022002	       1.069997
	 R(36,112)        =         2.022013	       1.070003
	 R(37,40)         =         2.918603	       1.544458
	 R(37,41)         =         2.918625	       1.544470
	 R(37,56)         =         2.918614	       1.544464
	 R(37,57)         =         2.918614	       1.544464
	 R(38,42)         =         2.918614	       1.544464
	 R(38,45)         =         2.918625	       1.544470
	 R(38,113)        =         2.022002	       1.069997
	 R(38,114)        =         2.022024	       1.070009
	 R(39,42)         =         2.918614	       1.544464
	 R(40,45)         =         2.918603	       1.544458
	 R(40,60)         =         2.918625	       1.544470
	 R(41,115)        =         2.022002	       1.069997
	 R(41,146)        =         2.021996	       1.069994
	 R(42,116)        =         2.022002	       1.069997
	 R(42,117)        =         2.022013	       1.070003
	 R(43,48)         =         2.918625	       1.544470
	 R(43,118)        =         2.022013	       1.070003
	 R(43,119)        =         2.022002	       1.069997
	 R(44,48)         =         2.918614	       1.544464
	 R(44,49)         =         2.918614	       1.544464
	 R(45,48)         =         2.918614	       1.544464
	 R(45,50)         =         2.918614	       1.544464
	 R(46,49)         =         2.918614	       1.544464
	 R(46,50)         =         2.918614	       1.544464
	 R(46,64)         =         2.918625	       1.544470
	 R(46,65)         =         2.918603	       1.544458
	 R(47,51)         =         2.918625	       1.544470
	 R(47,120)        =         2.022024	       1.070009
	 R(47,121)        =         2.022002	       1.069997
	 R(47,122)        =         2.022002	       1.069997
	 R(48,51)         =         2.918603	       1.544458
	 R(49,123)        =         2.022002	       1.069997
	 R(49,147)        =         2.021996	       1.069994
	 R(50,124)        =         2.022002	       1.069997
	 R(50,148)        =         2.021996	       1.069994
	 R(51,125)        =         2.022013	       1.070003
	 R(51,126)        =         2.022002	       1.069997
	 R(52,57)         =         2.918625	       1.544470
	 R(52,127)        =         2.022013	       1.070003
	 R(52,128)        =         2.022002	       1.069997
	 R(53,57)         =         2.918614	       1.544464
	 R(53,58)         =         2.918614	       1.544464
	 R(54,57)         =         2.918603	       1.544458
	 R(54,59)         =         2.918625	       1.544470
	 R(54,129)        =         2.022013	       1.070003
	 R(54,130)        =         2.022002	       1.069997
	 R(55,58)         =         2.918603	       1.544458
	 R(55,59)         =         2.918625	       1.544470
	 R(55,131)        =         2.022002	       1.069997
	 R(55,132)        =         2.022002	       1.069997
	 R(56,62)         =         2.918614	       1.544464
	 R(56,133)        =         2.022002	       1.069997
	 R(56,149)        =         2.022019	       1.070006
	 R(58,62)         =         2.918614	       1.544464
	 R(58,134)        =         2.022024	       1.070009
	 R(59,135)        =         2.022024	       1.070009
	 R(59,136)        =         2.022002	       1.069997
	 R(60,65)         =         2.918625	       1.544470
	 R(61,65)         =         2.918603	       1.544458
	 R(61,66)         =         2.918625	       1.544470
	 R(62,65)         =         2.918603	       1.544458
	 R(62,67)         =         2.918625	       1.544470
	 R(63,66)         =         2.918614	       1.544464
	 R(63,67)         =         2.918614	       1.544464
	 R(63,137)        =         2.022013	       1.070003
	 R(63,138)        =         2.021991	       1.069992
	 R(64,139)        =         2.022007	       1.070000
	 R(64,150)        =         2.021992	       1.069992
	 R(64,151)        =         2.022021	       1.070007
	 R(66,140)        =         2.022002	       1.069997
	 R(66,141)        =         2.022024	       1.070009
	 R(67,142)        =         2.022024	       1.070009
	 R(67,143)        =         2.022002	       1.069997
	 R(71,77)         =         1.464156	       0.774798
	 R(72,88)         =         1.464156	       0.774798
	 R(73,89)         =         1.464156	       0.774798
	 R(74,108)        =         1.464156	       0.774798
	 R(75,79)         =         1.464156	       0.774798
	 R(76,109)        =         1.464156	       0.774798
	 R(81,98)         =         1.464156	       0.774798
	 R(86,119)        =         1.464156	       0.774798
	 R(90,99)         =         1.464156	       0.774798
	 R(93,127)        =         1.464156	       0.774798
	 R(107,134)       =         1.464143	       0.774791
	 R(111,128)       =         1.464156	       0.774798
	 R(116,118)       =         1.464156	       0.774798
	 R(140,150)       =         1.436511	       0.760169
	 R(144,145)       =         1.278058	       0.676319
	 R(146,149)       =         1.278072	       0.676326
	 B(1,6,2)         =         1.910633	     109.471221
	 B(1,6,3)         =         1.910633	     109.471221
	 B(1,6,9)         =         1.910633	     109.471221
	 B(2,6,3)         =         1.910633	     109.471221
	 B(2,6,9)         =         1.910633	     109.471221
	 B(2,7,4)         =         1.910641	     109.471675
	 B(2,7,26)        =         1.910628	     109.470918
	 B(2,71,77)       =         2.526096	     144.734652
	 B(2,72,88)       =         2.526130	     144.736568
	 B(3,6,9)         =         1.910633	     109.471221
	 B(3,8,4)         =         1.910641	     109.471675
	 B(3,8,35)        =         1.910641	     109.471675
	 B(3,8,52)        =         1.910628	     109.470918
	 B(3,73,89)       =         2.526109	     144.735392
	 B(3,74,108)      =         2.526117	     144.735829
	 B(4,7,26)        =         1.910631	     109.471069
	 B(4,8,35)        =         1.910628	     109.470918
	 B(4,8,52)        =         1.910631	     109.471069
	 B(4,22,28)       =         1.910639	     109.471524
	 B(4,22,53)       =         1.910639	     109.471524
	 B(4,22,60)       =         1.910628	     109.470918
	 B(4,23,18)       =         1.910633	     109.471221
	 B(4,23,19)       =         1.910631	     109.471069
	 B(4,23,20)       =         1.910631	     109.471069
	 B(5,9,6)         =         1.910628	     109.470918
	 B(5,9,75)        =         1.910644	     109.471809
	 B(5,9,76)        =         1.910640	     109.471591
	 B(5,35,8)        =         1.910628	     109.470918
	 B(5,35,39)       =         1.910631	     109.471069
	 B(5,35,40)       =         1.910641	     109.471675
	 B(5,43,48)       =         1.910633	     109.471221
	 B(5,43,118)      =         1.910629	     109.471002
	 B(5,43,119)      =         1.910626	     109.470783
	 B(6,1,68)        =         1.910626	     109.470783
	 B(6,1,69)        =         1.910641	     109.471658
	 B(6,1,70)        =         1.910641	     109.471658
	 B(6,2,7)         =         1.910628	     109.470918
	 B(6,2,71)        =         1.910629	     109.471002
	 B(6,2,72)        =         1.910626	     109.470783
	 B(6,3,8)         =         1.910628	     109.470918
	 B(6,3,73)        =         1.910629	     109.471002
	 B(6,3,74)        =         1.910626	     109.470783
	 B(6,9,75)        =         1.910629	     109.471002
	 B(6,9,76)        =         1.910626	     109.470783
	 B(7,2,71)        =         1.910644	     109.471809
	 B(7,2,72)        =         1.910640	     109.471591
	 B(7,4,8)         =         1.910628	     109.470918
	 B(7,4,22)        =         1.910641	     109.471675
	 B(7,4,23)        =         1.910631	     109.471069
	 B(7,26,31)       =         1.910633	     109.471221
	 B(7,26,98)       =         1.910629	     109.471002
	 B(7,26,99)       =         1.910626	     109.470783
	 B(8,3,73)        =         1.910644	     109.471809
	 B(8,3,74)        =         1.910640	     109.471591
	 B(8,4,22)        =         1.910641	     109.471675
	 B(8,4,23)        =         1.910631	     109.471069
	 B(8,35,39)       =         1.910631	     109.471069
	 B(8,35,40)       =         1.910641	     109.471675
	 B(8,52,57)       =         1.910633	     109.471221
	 B(8,52,127)      =         1.910629	     109.471002
	 B(8,52,128)      =         1.910626	     109.470783
	 B(9,5,35)        =         1.910641	     109.471675
	 B(9,5,43)        =         1.910628	     109.470918
	 B(9,75,79)       =         2.526109	     144.735392
	 B(9,76,109)      =         2.526130	     144.736568
	 B(10,14,11)      =         1.910631	     109.471069
	 B(10,14,17)      =         1.910631	     109.471069
	 B(10,77,71)      =         2.526130	     144.736568
	 B(10,79,75)      =         2.526109	     144.735392
	 B(11,14,17)      =         1.910644	     109.471826
	 B(11,15,12)      =         1.910631	     109.471069
	 B(11,15,84)      =         1.745770	     100.025253
	 L(11,15,144)     =         3.056686	     175.135234
	 l(11,15,144)     =         3.141593	     180.000000
	 B(11,81,98)      =         2.526126	     144.736350
	 B(12,15,84)      =         2.626785	     150.503677
	 B(12,15,144)     =         1.146056	      65.664165
	 B(12,16,44)      =         1.910639	     109.471524
	 B(12,16,60)      =         1.910628	     109.470918
	 B(12,30,61)      =         1.910628	     109.470918
	 B(12,30,104)     =         2.626787	     150.503829
	 B(12,30,145)     =         1.146063	      65.664586
	 B(12,31,26)      =         1.910631	     109.471069
	 B(12,31,27)      =         1.910641	     109.471675
	 B(12,31,28)      =         1.910628	     109.470918
	 B(13,17,14)      =         1.910628	     109.470918
	 B(13,17,85)      =         1.910631	     109.471069
	 B(13,17,86)      =         1.910639	     109.471524
	 B(13,44,16)      =         1.910628	     109.470918
	 B(13,44,48)      =         1.910631	     109.471069
	 B(13,44,49)      =         1.910631	     109.471069
	 B(14,10,77)      =         1.910626	     109.470783
	 B(14,10,78)      =         1.910641	     109.471658
	 B(14,10,79)      =         1.910641	     109.471658
	 B(14,11,15)      =         1.910628	     109.470918
	 B(14,11,80)      =         1.910631	     109.471069
	 B(14,11,81)      =         1.910639	     109.471524
	 B(14,17,85)      =         1.910631	     109.471069
	 B(14,17,86)      =         1.910639	     109.471524
	 B(15,11,80)      =         1.910631	     109.471069
	 B(15,11,81)      =         1.910639	     109.471524
	 B(15,12,16)      =         1.910628	     109.470918
	 B(15,12,30)      =         1.910631	     109.471069
	 B(15,12,31)      =         1.910631	     109.471069
	 B(15,144,145)    =         2.611031	     149.601071
	 B(16,12,30)      =         1.910641	     109.471675
	 B(16,12,31)      =         1.910641	     109.471675
	 B(16,44,48)      =         1.910641	     109.471675
	 B(16,44,49)      =         1.910641	     109.471675
	 B(16,60,22)      =         1.910633	     109.471221
	 B(16,60,40)      =         1.910633	     109.471221
	 B(16,60,65)      =         1.910633	     109.471221
	 B(17,13,44)      =         1.910631	     109.471069
	 B(17,13,82)      =         1.910631	     109.471069
	 B(17,13,83)      =         1.910642	     109.471742
	 B(17,86,119)     =         2.526113	     144.735610
	 B(18,23,19)      =         1.910631	     109.471069
	 B(18,23,20)      =         1.910631	     109.471069
	 B(18,88,72)      =         2.526096	     144.734652
	 B(18,89,73)      =         2.526109	     144.735392
	 B(19,23,20)      =         1.910644	     109.471826
	 B(19,24,21)      =         1.910644	     109.471826
	 B(19,24,28)      =         1.910631	     109.471069
	 B(19,24,96)      =         1.910631	     109.471069
	 B(19,90,99)      =         2.526092	     144.734434
	 B(20,25,21)      =         1.910644	     109.471826
	 B(20,25,53)      =         1.910631	     109.471069
	 B(20,25,97)      =         1.910631	     109.471069
	 B(20,93,127)     =         2.526126	     144.736350
	 B(21,24,28)      =         1.910631	     109.471069
	 B(21,24,96)      =         1.910631	     109.471069
	 B(21,25,53)      =         1.910631	     109.471069
	 B(21,25,97)      =         1.910631	     109.471069
	 B(22,4,23)       =         1.910628	     109.470918
	 B(22,28,24)      =         1.910628	     109.470918
	 B(22,28,31)      =         1.910641	     109.471675
	 B(22,28,33)      =         1.910641	     109.471675
	 B(22,53,25)      =         1.910628	     109.470918
	 B(22,53,57)      =         1.910641	     109.471675
	 B(22,53,58)      =         1.910641	     109.471675
	 B(22,60,40)      =         1.910633	     109.471221
	 B(22,60,65)      =         1.910633	     109.471221
	 B(23,18,87)      =         1.910626	     109.470783
	 B(23,18,88)      =         1.910641	     109.471658
	 B(23,18,89)      =         1.910641	     109.471658
	 B(23,19,24)      =         1.910628	     109.470918
	 B(23,19,90)      =         1.910642	     109.471742
	 B(23,19,91)      =         1.910627	     109.470851
	 B(23,20,25)      =         1.910628	     109.470918
	 B(23,20,92)      =         1.910631	     109.471069
	 B(23,20,93)      =         1.910639	     109.471524
	 B(24,19,90)      =         1.910642	     109.471742
	 B(24,19,91)      =         1.910627	     109.470851
	 B(24,21,25)      =         1.910628	     109.470918
	 B(24,21,94)      =         1.910639	     109.471524
	 B(24,21,95)      =         1.910631	     109.471069
	 B(24,28,31)      =         1.910631	     109.471069
	 B(24,28,33)      =         1.910631	     109.471069
	 B(25,20,92)      =         1.910631	     109.471069
	 B(25,20,93)      =         1.910639	     109.471524
	 B(25,21,94)      =         1.910639	     109.471524
	 B(25,21,95)      =         1.910631	     109.471069
	 B(25,53,57)      =         1.910631	     109.471069
	 B(25,53,58)      =         1.910631	     109.471069
	 B(26,31,27)      =         1.910628	     109.470918
	 B(26,31,28)      =         1.910631	     109.471069
	 B(26,98,81)      =         2.526096	     144.734652
	 B(26,99,90)      =         2.526130	     144.736568
	 B(27,31,28)      =         1.910641	     109.471675
	 B(27,32,29)      =         1.910631	     109.471069
	 B(27,32,105)     =         1.910637	     109.471439
	 B(27,32,106)     =         1.910633	     109.471221
	 B(28,22,53)      =         1.910639	     109.471524
	 B(28,22,60)      =         1.910628	     109.470918
	 B(28,24,96)      =         1.910633	     109.471221
	 B(28,33,29)      =         1.910636	     109.471372
	 B(28,33,61)      =         1.910628	     109.470918
	 B(28,33,107)     =         1.910631	     109.471069
	 B(29,32,105)     =         1.910642	     109.471742
	 B(29,32,106)     =         1.910631	     109.471069
	 B(29,33,61)      =         1.910644	     109.471826
	 B(29,33,107)     =         1.910631	     109.471069
	 B(30,12,31)      =         1.910628	     109.470918
	 B(30,61,33)      =         1.910628	     109.470918
	 B(30,61,65)      =         1.910641	     109.471675
	 B(30,61,66)      =         1.910631	     109.471069
	 B(30,145,144)    =         2.610997	     149.599107
	 B(31,26,98)      =         1.910641	     109.471658
	 B(31,26,99)      =         1.910637	     109.471439
	 B(31,27,32)      =         1.910628	     109.470918
	 B(31,27,100)     =         1.910644	     109.471809
	 B(31,27,101)     =         1.910644	     109.471809
	 B(31,28,33)      =         1.910628	     109.470918
	 B(32,27,100)     =         1.910629	     109.471002
	 B(32,27,101)     =         1.910629	     109.471002
	 B(32,29,33)      =         1.910628	     109.470918
	 B(32,29,102)     =         1.910627	     109.470851
	 B(32,29,103)     =         1.910639	     109.471524
	 B(33,29,102)     =         1.910627	     109.470851
	 B(33,29,103)     =         1.910639	     109.471524
	 B(33,61,65)      =         1.910641	     109.471675
	 B(33,61,66)      =         1.910631	     109.471069
	 B(33,107,134)    =         2.526113	     144.735610
	 B(34,39,35)      =         1.910633	     109.471221
	 B(34,39,36)      =         1.910631	     109.471069
	 B(34,39,42)      =         1.910631	     109.471069
	 B(34,108,74)     =         2.526117	     144.735829
	 B(34,109,76)     =         2.526096	     144.734652
	 B(35,5,43)       =         1.910631	     109.471069
	 B(35,8,52)       =         1.910631	     109.471069
	 B(35,39,36)      =         1.910631	     109.471069
	 B(35,39,42)      =         1.910631	     109.471069
	 B(35,40,37)      =         1.910639	     109.471524
	 B(35,40,45)      =         1.910639	     109.471524
	 B(35,40,60)      =         1.910628	     109.470918
	 B(36,39,42)      =         1.910644	     109.471826
	 B(36,41,37)      =         1.910631	     109.471069
	 B(36,41,115)     =         1.745770	     100.025253
	 L(36,41,146)     =         3.056698	     175.135887
	 l(36,41,146)     =         3.141593	     180.000000
	 B(36,111,128)    =         2.526092	     144.734434
	 B(37,40,45)      =         1.910639	     109.471524
	 B(37,40,60)      =         1.910628	     109.470918
	 B(37,41,115)     =         2.626785	     150.503677
	 B(37,41,146)     =         1.146067	      65.664818
	 B(37,56,62)      =         1.910628	     109.470918
	 B(37,56,133)     =         2.626787	     150.503829
	 B(37,56,149)     =         1.146063	      65.664586
	 B(37,57,52)      =         1.910631	     109.471069
	 B(37,57,53)      =         1.910628	     109.470918
	 B(37,57,54)      =         1.910641	     109.471675
	 B(38,42,39)      =         1.910628	     109.470918
	 B(38,42,116)     =         1.910642	     109.471742
	 B(38,42,117)     =         1.910627	     109.470851
	 B(38,45,40)      =         1.910628	     109.470918
	 B(38,45,48)      =         1.910631	     109.471069
	 B(38,45,50)      =         1.910631	     109.471069
	 B(39,34,108)     =         1.910626	     109.470783
	 B(39,34,109)     =         1.910641	     109.471658
	 B(39,34,110)     =         1.910641	     109.471658
	 B(39,35,40)      =         1.910628	     109.470918
	 B(39,36,41)      =         1.910628	     109.470918
	 B(39,36,111)     =         1.910642	     109.471742
	 B(39,36,112)     =         1.910627	     109.470851
	 B(39,42,116)     =         1.910642	     109.471742
	 B(39,42,117)     =         1.910627	     109.470851
	 B(40,37,41)      =         1.910628	     109.470918
	 B(40,37,56)      =         1.910641	     109.471675
	 B(40,37,57)      =         1.910641	     109.471675
	 B(40,45,48)      =         1.910641	     109.471675
	 B(40,45,50)      =         1.910641	     109.471675
	 B(40,60,65)      =         1.910633	     109.471221
	 B(41,36,111)     =         1.910642	     109.471742
	 B(41,36,112)     =         1.910627	     109.470851
	 B(41,37,56)      =         1.910631	     109.471069
	 B(41,37,57)      =         1.910631	     109.471069
	 B(41,146,149)    =         2.611005	     149.599571
	 B(42,38,45)      =         1.910631	     109.471069
	 B(42,38,113)     =         1.910642	     109.471742
	 B(42,38,114)     =         1.910631	     109.471069
	 B(42,116,118)    =         2.526105	     144.735173
	 B(43,48,44)      =         1.910631	     109.471069
	 B(43,48,45)      =         1.910631	     109.471069
	 B(43,48,51)      =         1.910628	     109.470918
	 B(43,118,116)    =         2.526109	     144.735392
	 B(43,119,86)     =         2.526117	     144.735829
	 B(44,13,82)      =         1.910633	     109.471221
	 B(44,13,83)      =         1.910637	     109.471439
	 B(44,16,60)      =         1.910628	     109.470918
	 B(44,48,45)      =         1.910628	     109.470918
	 B(44,48,51)      =         1.910641	     109.471675
	 B(44,49,46)      =         1.910628	     109.470918
	 B(44,49,123)     =         1.745770	     100.025253
	 L(44,49,147)     =         3.056698	     175.135887
	 l(44,49,147)     =         3.141593	     180.000000
	 B(45,38,113)     =         1.910637	     109.471439
	 B(45,38,114)     =         1.910633	     109.471221
	 B(45,40,60)      =         1.910628	     109.470918
	 B(45,48,51)      =         1.910641	     109.471675
	 B(45,50,46)      =         1.910628	     109.470918
	 B(45,50,124)     =         1.745770	     100.025253
	 L(45,50,148)     =         3.056698	     175.135887
	 l(45,50,148)     =         3.141593	     180.000000
	 B(46,49,123)     =         2.626787	     150.503829
	 B(46,49,147)     =         1.146070	      65.664970
	 B(46,50,124)     =         2.626787	     150.503829
	 B(46,50,148)     =         1.146070	      65.664970
	 L(46,64,139)     =         3.092369	     177.179711
	 l(46,64,139)     =         3.141593	     180.000000
	 B(46,64,150)     =         1.584999	      90.813733
	 B(46,64,151)     =         1.557425	      89.233893
	 B(46,65,60)      =         1.910628	     109.470918
	 B(46,65,61)      =         1.910639	     109.471524
	 B(46,65,62)      =         1.910639	     109.471524
	 B(47,51,48)      =         1.910628	     109.470918
	 B(47,51,125)     =         1.910629	     109.471002
	 B(47,51,126)     =         1.910626	     109.470783
	 B(48,43,118)     =         1.910641	     109.471658
	 B(48,43,119)     =         1.910637	     109.471439
	 B(48,44,49)      =         1.910628	     109.470918
	 B(48,45,50)      =         1.910628	     109.470918
	 B(48,51,125)     =         1.910644	     109.471809
	 B(48,51,126)     =         1.910640	     109.471591
	 B(49,46,50)      =         1.910628	     109.470918
	 B(49,46,64)      =         1.910631	     109.471069
	 B(49,46,65)      =         1.910641	     109.471675
	 B(50,46,64)      =         1.910631	     109.471069
	 B(50,46,65)      =         1.910641	     109.471675
	 B(51,47,120)     =         1.910633	     109.471221
	 B(51,47,121)     =         1.910637	     109.471439
	 B(51,47,122)     =         1.910637	     109.471439
	 B(52,57,53)      =         1.910631	     109.471069
	 B(52,57,54)      =         1.910628	     109.470918
	 B(52,127,93)     =         2.526096	     144.734652
	 B(52,128,111)    =         2.526130	     144.736568
	 B(53,22,60)      =         1.910628	     109.470918
	 B(53,25,97)      =         1.910633	     109.471221
	 B(53,57,54)      =         1.910641	     109.471675
	 B(53,58,55)      =         1.910641	     109.471675
	 B(53,58,62)      =         1.910628	     109.470918
	 B(53,58,134)     =         1.910631	     109.471069
	 B(54,59,55)      =         1.910633	     109.471221
	 B(54,59,135)     =         1.910633	     109.471221
	 B(54,59,136)     =         1.910637	     109.471439
	 B(55,58,62)      =         1.910641	     109.471675
	 B(55,58,134)     =         1.910628	     109.470918
	 B(55,59,135)     =         1.910633	     109.471221
	 B(55,59,136)     =         1.910637	     109.471439
	 B(56,37,57)      =         1.910628	     109.470918
	 B(56,62,58)      =         1.910628	     109.470918
	 B(56,62,65)      =         1.910641	     109.471675
	 B(56,62,67)      =         1.910631	     109.471069
	 B(56,149,146)    =         2.611012	     149.599954
	 B(57,52,127)     =         1.910641	     109.471658
	 B(57,52,128)     =         1.910637	     109.471439
	 B(57,53,58)      =         1.910628	     109.470918
	 B(57,54,59)      =         1.910628	     109.470918
	 B(57,54,129)     =         1.910644	     109.471809
	 B(57,54,130)     =         1.910640	     109.471591
	 B(58,55,59)      =         1.910628	     109.470918
	 B(58,55,131)     =         1.910640	     109.471591
	 B(58,55,132)     =         1.910640	     109.471591
	 B(58,62,65)      =         1.910641	     109.471675
	 B(58,62,67)      =         1.910631	     109.471069
	 B(58,134,107)    =         2.526113	     144.735610
	 B(59,54,129)     =         1.910629	     109.471002
	 B(59,54,130)     =         1.910626	     109.470783
	 B(59,55,131)     =         1.910626	     109.470783
	 B(59,55,132)     =         1.910626	     109.470783
	 B(60,65,61)      =         1.910628	     109.470918
	 B(60,65,62)      =         1.910628	     109.470918
	 B(61,30,104)     =         1.745770	     100.025253
	 L(61,30,145)     =         3.056691	     175.135504
	 l(61,30,145)     =         3.141593	     180.000000
	 B(61,33,107)     =         1.910631	     109.471069
	 B(61,65,62)      =         1.910639	     109.471524
	 B(61,66,63)      =         1.910631	     109.471069
	 B(61,66,140)     =         1.910637	     109.471439
	 B(61,66,141)     =         1.910633	     109.471221
	 B(62,56,133)     =         1.745770	     100.025253
	 L(62,56,149)     =         3.056691	     175.135504
	 l(62,56,149)     =         3.141593	     180.000000
	 B(62,58,134)     =         1.910631	     109.471069
	 B(62,67,63)      =         1.910631	     109.471069
	 B(62,67,142)     =         1.910633	     109.471221
	 B(62,67,143)     =         1.910637	     109.471439
	 B(63,66,140)     =         1.910642	     109.471742
	 B(63,66,141)     =         1.910631	     109.471069
	 B(63,67,142)     =         1.910631	     109.471069
	 B(63,67,143)     =         1.910642	     109.471742
	 B(64,46,65)      =         1.910628	     109.470918
	 B(64,150,140)    =         2.579301	     147.783061
	 B(65,61,66)      =         1.910628	     109.470918
	 B(65,62,67)      =         1.910628	     109.470918
	 B(66,63,67)      =         1.910628	     109.470918
	 B(66,63,137)     =         1.910627	     109.470851
	 B(66,63,138)     =         1.910639	     109.471524
	 B(66,140,150)    =         2.143736	     122.827014
	 B(67,63,137)     =         1.910627	     109.470851
	 B(67,63,138)     =         1.910639	     109.471524
	 B(68,1,69)       =         1.910633	     109.471221
	 B(68,1,70)       =         1.910633	     109.471221
	 B(69,1,70)       =         1.910626	     109.470783
	 B(71,2,72)       =         1.910633	     109.471221
	 B(73,3,74)       =         1.910633	     109.471221
	 B(75,9,76)       =         1.910633	     109.471221
	 B(77,10,78)      =         1.910633	     109.471221
	 B(77,10,79)      =         1.910633	     109.471221
	 B(78,10,79)      =         1.910626	     109.470783
	 B(80,11,81)      =         1.910633	     109.471221
	 B(82,13,83)      =         1.910626	     109.470783
	 B(84,15,144)     =         1.480729	      84.839513
	 B(85,17,86)      =         1.910633	     109.471221
	 B(87,18,88)      =         1.910633	     109.471221
	 B(87,18,89)      =         1.910633	     109.471221
	 B(88,18,89)      =         1.910626	     109.470783
	 B(90,19,91)      =         1.910633	     109.471221
	 B(92,20,93)      =         1.910633	     109.471221
	 B(94,21,95)      =         1.910633	     109.471221
	 B(98,26,99)      =         1.910633	     109.471221
	 B(100,27,101)    =         1.910626	     109.470783
	 B(102,29,103)    =         1.910641	     109.471658
	 B(104,30,145)    =         1.480724	      84.839242
	 B(105,32,106)    =         1.910626	     109.470783
	 B(108,34,109)    =         1.910633	     109.471221
	 B(108,34,110)    =         1.910633	     109.471221
	 B(109,34,110)    =         1.910626	     109.470783
	 B(111,36,112)    =         1.910633	     109.471221
	 B(113,38,114)    =         1.910626	     109.470783
	 B(115,41,146)    =         1.480717	      84.838859
	 B(116,42,117)    =         1.910633	     109.471221
	 B(118,43,119)    =         1.910633	     109.471221
	 B(120,47,121)    =         1.910626	     109.470783
	 B(120,47,122)    =         1.910626	     109.470783
	 B(121,47,122)    =         1.910641	     109.471658
	 B(123,49,147)    =         1.480717	      84.838859
	 B(124,50,148)    =         1.480717	      84.838859
	 B(125,51,126)    =         1.910633	     109.471221
	 B(127,52,128)    =         1.910633	     109.471221
	 B(129,54,130)    =         1.910633	     109.471221
	 B(131,55,132)    =         1.910641	     109.471658
	 B(133,56,149)    =         1.480724	      84.839242
	 B(135,59,136)    =         1.910626	     109.470783
	 B(137,63,138)    =         1.910641	     109.471658
	 B(139,64,150)    =         1.585011	      90.814452
	 B(139,64,151)    =         1.557436	      89.234484
	 B(140,66,141)    =         1.910626	     109.470783
	 B(142,67,143)    =         1.910626	     109.470783
	 L(150,64,151)    =         3.100251	     177.631326
	 l(150,64,151)    =         3.141593	     180.000000
	 D(1,6,2,7)       =         3.141593	     180.000000
	 D(1,6,2,71)      =         1.047191	      59.999598
	 D(1,6,2,72)      =        -1.047198	     -60.000000
	 D(1,6,3,8)       =         3.141593	     180.000000
	 D(1,6,3,73)      =         1.047191	      59.999598
	 D(1,6,3,74)      =        -1.047198	     -60.000000
	 D(1,6,9,5)       =         3.141593	     180.000000
	 D(1,6,9,75)      =        -1.047191	     -59.999598
	 D(1,6,9,76)      =         1.047198	      60.000000
	 D(2,6,1,68)      =         1.047198	      60.000000
	 D(2,6,1,69)      =        -1.047198	     -60.000000
	 D(2,6,1,70)      =         3.141593	     180.000000
	 D(2,6,3,8)       =         1.047198	      60.000000
	 D(2,6,3,73)      =        -1.047205	     -60.000402
	 D(2,6,3,74)      =         3.141593	     180.000000
	 D(2,6,9,5)       =        -1.047198	     -60.000000
	 D(2,6,9,75)      =         1.047205	      60.000402
	 D(2,6,9,76)      =         3.141593	     180.000000
	 D(2,7,4,8)       =        -1.047196	     -59.999907
	 D(2,7,4,22)      =         3.141593	     180.000000
	 D(2,7,4,23)      =         1.047191	      59.999629
	 D(2,7,26,31)     =         3.141593	     180.000000
	 D(2,7,26,98)     =         1.047191	      59.999598
	 D(2,7,26,99)     =        -1.047198	     -60.000000
	 D(2,71,77,10)    =        -0.000049	      -0.002791
	 D(2,72,88,18)    =        -0.000026	      -0.001479
	 D(3,6,1,68)      =        -1.047198	     -60.000000
	 D(3,6,1,69)      =         3.141593	     180.000000
	 D(3,6,1,70)      =         1.047198	      60.000000
	 D(3,6,2,7)       =        -1.047198	     -60.000000
	 D(3,6,2,71)      =         3.141593	     180.000000
	 D(3,6,2,72)      =         1.047198	      60.000000
	 D(3,6,9,5)       =         1.047198	      60.000000
	 D(3,6,9,75)      =         3.141593	     180.000000
	 D(3,6,9,76)      =        -1.047198	     -60.000000
	 D(3,8,4,7)       =         1.047196	      59.999907
	 D(3,8,4,22)      =         3.141593	     180.000000
	 D(3,8,4,23)      =        -1.047191	     -59.999629
	 D(3,8,35,5)      =        -1.047196	     -59.999907
	 D(3,8,35,39)     =         1.047191	      59.999629
	 D(3,8,35,40)     =         3.141593	     180.000000
	 D(3,8,52,57)     =         3.141593	     180.000000
	 D(3,8,52,127)    =         1.047191	      59.999598
	 D(3,8,52,128)    =        -1.047198	     -60.000000
	 D(3,73,89,18)    =         0.000026	       0.001479
	 D(3,74,108,34)   =         0.000049	       0.002791
	 D(4,7,2,6)       =         1.047199	      60.000093
	 D(4,7,2,71)      =         3.141593	     180.000000
	 D(4,7,2,72)      =        -1.047187	     -59.999413
	 D(4,7,26,31)     =        -1.047193	     -59.999722
	 D(4,7,26,98)     =         3.141593	     180.000000
	 D(4,7,26,99)     =         1.047202	      60.000278
	 D(4,8,3,6)       =        -1.047199	     -60.000093
	 D(4,8,3,73)      =         1.047194	      59.999815
	 D(4,8,3,74)      =         3.141593	     180.000000
	 D(4,8,35,5)      =         1.047211	      60.000742
	 D(4,8,35,39)     =         3.141593	     180.000000
	 D(4,8,35,40)     =        -1.047196	     -59.999907
	 D(4,8,52,57)     =         1.047193	      59.999722
	 D(4,8,52,127)    =        -1.047209	     -60.000680
	 D(4,8,52,128)    =         3.141593	     180.000000
	 D(4,22,28,24)    =        -1.047204	     -60.000371
	 D(4,22,28,31)    =         1.047189	      59.999536
	 D(4,22,28,33)    =         3.141593	     180.000000
	 D(4,22,53,25)    =         1.047204	      60.000371
	 D(4,22,53,57)    =        -1.047189	     -59.999536
	 D(4,22,53,58)    =         3.141593	     180.000000
	 D(4,22,60,16)    =        -1.047198	     -60.000000
	 D(4,22,60,40)    =         1.047198	      60.000000
	 D(4,22,60,65)    =         3.141593	     180.000000
	 D(4,23,18,87)    =         3.141593	     180.000000
	 D(4,23,18,88)    =         1.047198	      60.000000
	 D(4,23,18,89)    =        -1.047198	     -60.000000
	 D(4,23,19,24)    =         1.047206	      60.000464
	 D(4,23,19,90)    =        -1.047203	     -60.000309
	 D(4,23,19,91)    =         3.141593	     180.000000
	 D(4,23,20,25)    =        -1.047206	     -60.000464
	 D(4,23,20,92)    =         3.141593	     180.000000
	 D(4,23,20,93)    =         1.047196	      59.999907
	 D(5,9,75,79)     =         1.047199	      60.000092
	 D(5,9,76,109)    =        -1.047197	     -59.999958
	 D(5,35,8,52)     =         3.141593	     180.000000
	 D(5,35,39,34)    =         1.047193	      59.999722
	 D(5,35,39,36)    =         3.141593	     180.000000
	 D(5,35,39,42)    =        -1.047198	     -60.000000
	 D(5,35,40,37)    =         3.141593	     180.000000
	 D(5,35,40,45)    =         1.047189	      59.999536
	 D(5,35,40,60)    =        -1.047199	     -60.000093
	 D(5,43,48,44)    =         1.047193	      59.999722
	 D(5,43,48,45)    =        -1.047193	     -59.999722
	 D(5,43,48,51)    =         3.141593	     180.000000
	 D(5,43,118,116)  =         1.047225	      60.001575
	 D(5,43,119,86)   =        -1.047223	     -60.001441
	 D(6,2,7,26)      =         3.141593	     180.000000
	 D(6,2,71,77)     =         1.047225	      60.001575
	 D(6,2,72,88)     =        -1.047191	     -59.999630
	 D(6,3,8,35)      =         1.047199	      60.000093
	 D(6,3,8,52)      =         3.141593	     180.000000
	 D(6,3,73,89)     =         1.047193	      59.999764
	 D(6,3,74,108)    =        -1.047223	     -60.001441
	 D(6,9,5,35)      =        -1.047199	     -60.000093
	 D(6,9,5,43)      =         3.141593	     180.000000
	 D(6,9,75,79)     =        -1.047193	     -59.999764
	 D(6,9,76,109)    =         1.047191	      59.999630
	 D(7,2,6,9)       =         1.047198	      60.000000
	 D(7,2,71,77)     =        -1.047168	     -59.998281
	 D(7,2,72,88)     =         1.047197	      59.999958
	 D(7,4,8,35)      =        -1.047211	     -60.000742
	 D(7,4,8,52)      =         3.141593	     180.000000
	 D(7,4,22,28)     =        -1.047189	     -59.999536
	 D(7,4,22,53)     =         3.141593	     180.000000
	 D(7,4,22,60)     =         1.047199	      60.000093
	 D(7,4,23,18)     =        -1.047193	     -59.999722
	 D(7,4,23,19)     =         1.047198	      60.000000
	 D(7,4,23,20)     =         3.141593	     180.000000
	 D(7,26,31,12)    =        -1.047193	     -59.999722
	 D(7,26,31,27)    =         3.141593	     180.000000
	 D(7,26,31,28)    =         1.047193	      59.999722
	 D(7,26,98,81)    =         1.047225	      60.001575
	 D(7,26,99,90)    =        -1.047223	     -60.001441
	 D(8,3,6,9)       =        -1.047198	     -60.000000
	 D(8,3,73,89)     =        -1.047199	     -60.000092
	 D(8,3,74,108)    =         1.047165	      59.998147
	 D(8,4,7,26)      =         3.141593	     180.000000
	 D(8,4,22,28)     =         3.141593	     180.000000
	 D(8,4,22,53)     =         1.047189	      59.999536
	 D(8,4,22,60)     =        -1.047199	     -60.000093
	 D(8,4,23,18)     =         1.047193	      59.999722
	 D(8,4,23,19)     =         3.141593	     180.000000
	 D(8,4,23,20)     =        -1.047198	     -60.000000
	 D(8,35,5,9)      =         1.047196	      59.999907
	 D(8,35,5,43)     =         3.141593	     180.000000
	 D(8,35,39,34)    =        -1.047193	     -59.999722
	 D(8,35,39,36)    =         1.047198	      60.000000
	 D(8,35,39,42)    =         3.141593	     180.000000
	 D(8,35,40,37)    =        -1.047189	     -59.999536
	 D(8,35,40,45)    =         3.141593	     180.000000
	 D(8,35,40,60)    =         1.047199	      60.000093
	 D(8,52,57,37)    =         1.047193	      59.999722
	 D(8,52,57,53)    =        -1.047193	     -59.999722
	 D(8,52,57,54)    =         3.141593	     180.000000
	 D(8,52,127,93)   =         1.047225	      60.001575
	 D(8,52,128,111)  =        -1.047223	     -60.001441
	 D(9,5,35,39)     =        -1.047191	     -59.999629
	 D(9,5,35,40)     =         3.141593	     180.000000
	 D(9,5,43,48)     =         3.141593	     180.000000
	 D(9,5,43,118)    =         1.047191	      59.999598
	 D(9,5,43,119)    =        -1.047198	     -60.000000
	 D(9,6,1,68)      =         3.141593	     180.000000
	 D(9,6,1,69)      =         1.047198	      60.000000
	 D(9,6,1,70)      =        -1.047198	     -60.000000
	 D(9,6,2,71)      =        -1.047205	     -60.000402
	 D(9,6,2,72)      =         3.141593	     180.000000
	 D(9,6,3,73)      =         3.141593	     180.000000
	 D(9,6,3,74)      =         1.047198	      60.000000
	 D(9,75,79,10)    =        -0.000026	      -0.001479
	 D(9,76,109,34)   =         0.000026	       0.001479
	 D(10,14,11,15)   =         3.141593	     180.000000
	 D(10,14,11,80)   =         1.047201	      60.000185
	 D(10,14,11,81)   =        -1.047196	     -59.999907
	 D(10,14,17,13)   =         3.141593	     180.000000
	 D(10,14,17,85)   =        -1.047201	     -60.000185
	 D(10,14,17,86)   =         1.047196	      59.999907
	 D(11,14,10,77)   =         1.047193	      59.999722
	 D(11,14,10,78)   =        -1.047202	     -60.000278
	 D(11,14,10,79)   =         3.141593	     180.000000
	 D(11,14,17,13)   =        -1.047191	     -59.999629
	 D(11,14,17,85)   =         1.047196	      59.999907
	 D(11,14,17,86)   =         3.141593	     180.000000
	 D(11,15,12,16)   =        -1.047202	     -60.000278
	 D(11,15,12,30)   =         3.141593	     180.000000
	 D(11,15,12,31)   =         1.047198	      60.000000
	 D(11,81,98,26)   =        -0.000037	      -0.002135
	 D(12,15,11,14)   =         1.047206	      60.000464
	 D(12,15,11,80)   =         3.141593	     180.000000
	 D(12,15,11,81)   =        -1.047196	     -59.999907
	 D(12,15,144,145)  =         0.000240	       0.013735
	 D(12,16,44,13)   =         1.047204	      60.000371
	 D(12,16,44,48)   =         3.141593	     180.000000
	 D(12,16,44,49)   =        -1.047189	     -59.999536
	 D(12,16,60,22)   =        -1.047198	     -60.000000
	 D(12,16,60,40)   =         3.141593	     180.000000
	 D(12,16,60,65)   =         1.047198	      60.000000
	 D(12,30,61,33)   =         1.047211	      60.000742
	 D(12,30,61,65)   =        -1.047196	     -59.999907
	 D(12,30,61,66)   =         3.141593	     180.000000
	 D(12,30,145,144)  =         0.000243	       0.013920
	 D(12,31,26,98)   =         1.047202	      60.000278
	 D(12,31,26,99)   =         3.141593	     180.000000
	 D(12,31,27,32)   =         1.047199	      60.000093
	 D(12,31,27,100)  =        -1.047194	     -59.999815
	 D(12,31,27,101)  =         3.141593	     180.000000
	 D(12,31,28,22)   =         1.047196	      59.999907
	 D(12,31,28,24)   =         3.141593	     180.000000
	 D(12,31,28,33)   =        -1.047211	     -60.000742
	 D(13,17,86,119)  =        -1.047213	     -60.000906
	 D(13,44,16,60)   =         3.141593	     180.000000
	 D(13,44,48,43)   =         1.047201	      60.000185
	 D(13,44,48,45)   =         3.141593	     180.000000
	 D(13,44,48,51)   =        -1.047191	     -59.999629
	 D(13,44,49,46)   =         3.141593	     180.000000
	 D(13,44,49,123)  =        -0.000000	      -0.000000
	 D(14,10,77,71)   =         1.047223	      60.001441
	 D(14,10,79,75)   =        -1.047172	     -59.998559
	 D(14,11,15,84)   =        -2.094396	    -120.000060
	 D(14,11,81,98)   =        -1.047182	     -59.999094
	 D(14,17,13,44)   =        -1.047206	     -60.000464
	 D(14,17,13,82)   =         3.141593	     180.000000
	 D(14,17,13,83)   =         1.047198	      60.000031
	 D(14,17,86,119)  =         1.047182	      59.999094
	 D(15,11,14,17)   =         1.047191	      59.999629
	 D(15,11,81,98)   =         1.047213	      60.000906
	 D(15,12,16,44)   =        -1.047204	     -60.000371
	 D(15,12,16,60)   =         3.141593	     180.000000
	 D(15,12,30,61)   =         3.141593	     180.000000
	 D(15,12,30,104)  =         0.000023	       0.001325
	 D(15,12,30,145)  =        -0.000037	      -0.002104
	 D(15,12,31,26)   =        -1.047201	     -60.000185
	 D(15,12,31,27)   =         1.047191	      59.999629
	 D(15,12,31,28)   =         3.141593	     180.000000
	 D(15,144,145,30)  =        -0.000474	      -0.027155
	 D(16,12,15,84)   =         2.094409	     120.000769
	 D(16,12,15,144)  =         2.094366	     119.998338
	 D(16,12,30,61)   =         1.047196	      59.999907
	 D(16,12,30,104)  =        -2.094369	    -119.998489
	 D(16,12,30,145)  =        -2.094429	    -120.001918
	 D(16,12,31,26)   =         1.047191	      59.999629
	 D(16,12,31,27)   =         3.141593	     180.000000
	 D(16,12,31,28)   =        -1.047196	     -59.999907
	 D(16,44,13,17)   =         1.047202	      60.000278
	 D(16,44,13,82)   =         3.141593	     180.000000
	 D(16,44,13,83)   =        -1.047205	     -60.000402
	 D(16,44,48,43)   =        -1.047191	     -59.999629
	 D(16,44,48,45)   =         1.047196	      59.999907
	 D(16,44,48,51)   =         3.141593	     180.000000
	 D(16,44,49,46)   =        -1.047196	     -59.999907
	 D(16,44,49,123)  =         2.094383	     119.999291
	 D(16,60,22,28)   =         1.047198	      60.000000
	 D(16,60,22,53)   =         3.141593	     180.000000
	 D(16,60,40,35)   =         1.047198	      60.000000
	 D(16,60,40,37)   =         3.141593	     180.000000
	 D(16,60,40,45)   =        -1.047198	     -60.000000
	 D(16,60,65,46)   =         1.047198	      60.000000
	 D(16,60,65,61)   =        -1.047198	     -60.000000
	 D(16,60,65,62)   =         3.141593	     180.000000
[...]
    Convergence Criteria    1.00e-06 *    3.00e-04 *             o    1.20e-03 *             o  ~
  --------------------------------------------------------------------------------------------- ~
      1  -11119.24967304   -1.11e+04      2.09e+00      8.97e-02 o    2.87e-01      1.25e-02 o  ~
  ---------------------------------------------------------------------------------------------

	Writing optimization data to binary file.
	Structure for next step:
	Cartesian Geometry (in Angstrom)
	    C    -3.1056912042  -3.4174599902  -3.1402632040
	    C    -3.1364670954  -1.6102775342  -1.3820975099
	    C    -1.3295467135  -1.6256390021  -3.1428098671
	    C    -1.3601739260   0.1813335834  -1.3824475827
	    N    -0.4749971818  -2.4776700128  -0.4510759443
	    C    -2.2298424192  -2.5100002097  -2.2492482584
	    C    -2.2591498450  -0.7025913136  -0.4892162387
	    C    -0.4531389291  -0.7177231423  -2.2527854231
	    C    -1.3474729667  -3.3852570232  -1.3332173868
	    C    -3.1564687257  -3.3691678275   0.4259030553
	    C    -3.1942963064  -1.5642403093   2.1820374950
	    C    -1.4121797530   0.2242951355   2.1859832218
	    C    -0.5466314369  -2.4515368041   3.0867939784
	    C    -2.2813648416  -2.4611668120   1.3178163090
	    C    -2.3246170638  -0.6595722685   3.0749651488
	    C    -0.4852270225  -0.6875859249   1.3187627334
	    C    -1.3884014490  -3.3242621152   2.2424993442
	    C    -3.1207155450   0.1489090881  -3.1895667472
	    C    -3.1528788894   1.9553411994  -1.4303047535
	    C    -1.3459070231   1.9414226194  -3.1890541105
	    C    -1.3797899858   3.7475934293  -1.4279329262
	    C    -0.4849715538   1.0886408889  -0.4913232868
	    C    -2.2448776320   1.0567535872  -2.2978733873
	    C    -2.2788293480   2.8622774488  -0.5377732007
	    C    -0.4709931518   2.8496403899  -2.2962822452
	    C    -3.1675143612   0.1961546499   0.3759476123
	    C    -3.2045735363   2.0007606122   2.1353532772
	    C    -1.3947690257   1.9852805397   0.3776551419
	    C    -1.4301230475   3.7886606704   2.1385669896
	    C    -0.5420528831   1.1258462865   3.0755831470
	    C    -2.2946244939   1.1017727386   1.2679117368
	    C    -2.3305720756   2.9059402952   3.0285459895
	    C    -0.5215391908   2.8885358745   1.2702081503
	    C     0.4612518509  -3.4000189798  -3.0937777860
	    C     0.4292791134  -1.5919434337  -1.3429979855
	    C     2.2377188616  -1.6061635809  -3.0960795869
	    C     2.2050529588   0.2008744148  -1.3412955328
	    C     3.0935270621  -2.4559726785  -0.3931204238
	    C     1.3365522231  -2.4902872912  -2.2035378838
	    C     1.3070048339  -0.6818259061  -0.4534323385
	    C     3.1129691575  -0.6974445035  -2.2050057105
	    C     2.2187983285  -3.3643192927  -1.2848541034
	    C     0.4075589187  -3.3445162692   0.4716782040
	    C     0.3714808344  -1.5534103863   2.2141044740
	    C     2.1867656768  -1.5532990792   0.4703611139
	    C     2.1493439406   0.2382735871   2.2188355445
	    C     3.0300052552  -2.4191437761   3.1736964101
	    C     1.2736299038  -2.4284438025   1.3673668637
	    C     1.2255088148  -0.6679313467   3.0817031147
	    C     3.0674256699  -0.6554899797   1.3628093635
	    C     2.1619386464  -3.3177635729   2.2820802527
	    C     0.4459121997   0.1676068135  -3.1449380154
	    C     0.4131948908   1.9746817511  -1.3819027685
	    C     2.2205907308   1.9621661146  -3.1409425263
	    C     2.1863754542   3.7683655568  -1.3761676199
	    C     3.0803171413   1.1091503582  -0.4442594947
	    C     1.3220374196   1.0760638011  -2.2527867905
	    C     1.2876018725   2.8833897720  -0.4871715051
	    C     3.0952628383   2.8702434268  -2.2460711806
	    C     0.4030360326   0.2138715470   0.4210827525
	    C     0.3612644572   2.0113182312   2.1841819390
	    C     2.1705652203   2.0090325482   0.4263083930
	    C     2.1356437880   3.8037449427   2.1920196405
	    C     3.0229692256   1.1418044752   3.1218719999
	    C     1.2713187821   1.1213130387   1.3126126885
	    C     1.2345476650   2.9108655985   3.0791520198
	    C     3.0448410410   2.9108972088   1.3215610548
	    H    -3.7176256419  -2.8108860717  -3.7746912405
	    H    -3.7291479719  -4.0292419215  -2.5222571436
	    H    -2.4772198782  -4.0410740866  -3.7411260957
	    H    -3.7608393261  -2.2221908522  -0.7641493143
	    H    -3.7483464751  -1.0036123162  -2.0163185734
	    H    -1.9423844730  -1.0192572537  -3.7764929865
	    H    -0.7011085461  -2.2489187517  -3.7444493472
	    H    -1.9715505857  -3.9966432443  -0.7148226462
	    H    -0.7184716886  -4.0090486613  -1.9330685983
	    H    -3.7674255993  -2.7626199773  -0.2088302861
	    H    -3.7800345384  -3.9814949885   1.0432587781
	    H    -2.5271729549  -3.9919393032  -0.1746755893
	    H    -3.8190531789  -2.1753958516   2.7993599975
	    H    -3.8030001616  -0.9581854686   1.5462059641
	    H     0.1003113310  -3.1853492366   3.8185895763
	    H    -1.3068647703  -1.7916377729   3.7791621817
	    H    -2.6650928188  -0.9683287890   4.0412157221
	    H    -2.0085443325  -3.9343146463   2.8655386945
	    H    -0.7615001569  -3.9489695733   1.6408101840
	    H    -3.7333079470   0.7554129847  -3.8234264955
	    H    -3.7435223660  -0.4633047753  -2.5714643935
	    H    -2.4925359940  -0.4741117044  -3.7909468698
	    H    -3.7752159808   1.3426106294  -0.8133600701
	    H    -3.7653758169   2.5617183441  -2.0643877414
	    H    -1.9585855116   2.5479385974  -3.8228385825
	    H    -0.7171560246   1.3192124585  -3.7908873730
	    H    -0.7738299449   4.3763733000  -0.8096040850
	    H    -1.9924451641   4.3542142792  -2.0616395584
	    H    -2.9083554606   3.4843141591   0.0636305931
	    H     0.1518308151   3.4632121300  -2.9131609567
	    H    -3.7936087639  -0.4173244099   0.9916195323
	    H    -3.7793870922   0.8022957135  -0.2587704506
	    H    -3.8288858755   1.3881215055   2.7516441108
	    H    -3.8157576590   2.6078133263   1.5006502491
	    H    -0.8236371160   4.4163878929   2.7574694960
	    H    -2.0409760370   4.3962648648   1.5040923873
	    H    -0.2359804103   1.4629644091   4.0438628131
	    H    -1.7195691978   2.2984164530   3.6629629443
	    H    -2.9594876250   3.5289423194   3.6295892727
	    H     0.1021020213   3.5038610852   0.6545103962
	    H    -0.1506549246  -2.7943367372  -3.7293976446
	    H    -0.1626263026  -4.0127223072  -2.4741830320
	    H     1.0903476212  -4.0243854187  -3.6932041995
	    H     1.6255771777  -1.0004239684  -3.7320629554
	    H     2.8675487000  -2.2299304059  -3.6953593930
	    H     3.7194289393  -1.8450985173  -1.0095409032
	    H     3.7028766505  -3.0636300894   0.2427764773
	    H     4.0868290454  -1.0204660915  -2.5085653776
	    H     1.5947065480  -3.9748061383  -0.6661577692
	    H     2.8484557198  -3.9890229574  -1.8833387434
	    H     1.0388320680  -3.9685944031  -0.1262047339
	    H    -0.2094316151  -3.9553087093   1.0970659204
	    H     3.6426856918  -3.0281351797   3.8051007747
	    H     2.3997750631  -1.8003381231   3.7776699831
	    H     3.6527385824  -1.8025023699   2.5598143469
	    H     0.8815526409  -0.9869615324   4.0433726994
	    H     4.0419635764  -0.9825775148   1.0658512651
	    H     1.5388482406  -3.9341070294   2.8959092625
	    H     2.7904682302  -3.9373685134   1.6771547300
	    H    -0.1668904490   0.7744128449  -3.7775279384
	    H     1.0746657842  -0.4550150982  -3.7471742630
	    H     1.6082939918   2.5697571519  -3.7740561007
	    H     2.8501410820   1.3409190986  -3.7431161794
	    H     1.5741629523   4.3752988782  -2.0099833691
	    H     2.7920014820   4.3968085085  -0.7571593979
	    H     4.0419443233   1.4396088199  -0.1111455998
	    H     0.6576689157   3.5030991255   0.1145718003
	    H     3.7180659210   3.4843722480  -2.8624164002
	    H     3.7077280206   2.2630252200  -1.6127726271
	    H     2.7407862631   4.4296667551   2.8140577687
	    H     1.5233906818   4.4133875547   1.5608585896
	    H     3.6478484014   1.7231046492   3.7672529761
	    H     1.8445783594   2.3028575499   3.7100790468
	    H     0.6046388833   3.5304519913   3.6826807658
	    H     3.6690769755   3.5258866654   0.7075278430
	    H     3.6562381412   2.3015994458   1.9538935860
	    H    -1.6821901164   0.0019515115   3.6175594914
	    H    -1.2038888365   0.4809365819   3.6171816369
	    H     3.6423073993  -0.0339674752  -1.5528561211
	    H     1.8624607671  -0.0100102758   3.6351642868
	    H     3.5947082992   0.0017691544   2.0222565970
	    H     3.6336958390   0.4505704146  -1.0807261323
	    H     2.1550356961   1.6522220810   3.4772526172
	    H     3.8961342032   0.6591788335   2.7351273135
			--------------------------
			 OPTKING Finished Execution 
			--------------------------

    Structure for next step:
    Molecular point group: c1
    Full point group: C1

    Geometry (in Angstrom), charge = 0, multiplicity = 2:

    C           -3.107082036422    -3.418225696716    -3.137757651894
    C           -3.137857927716    -1.611043240709    -1.379591957774
    C           -1.330937545810    -1.626404708533    -3.140304314993
    C           -1.361564758237     0.180567876953    -1.379942030519
    N           -0.476388014067    -2.478435719253    -0.448570392172
    C           -2.231233251445    -2.510765916205    -2.246742706210
    C           -2.260540677254    -0.703357020029    -0.486710686586
    C           -0.454529761329    -0.718488848734    -2.250279871003
    C           -1.348863798939    -3.386022729663    -1.330711834669
    C           -3.157859557947    -3.369933533927     0.428408607432
    C           -3.195687138708    -1.565006015765     2.184543047116
    C           -1.413570585256     0.223529429047     2.188488773901
    C           -0.548022269180    -2.452302510535     3.089299530574
    C           -2.282755673818    -2.461932518510     1.320321861185
    C           -2.326007896081    -0.660337975004     3.077470700969
    C           -0.486617854750    -0.688351631332     1.321268285569
    C           -1.389792281258    -3.325027821677     2.245004896320
    C           -3.122106377240     0.148143381605    -3.187061195056
    C           -3.154269721677     1.954575492902    -1.427799201358
    C           -1.347297855383     1.940656912949    -3.186548558382
    C           -1.381180818048     3.746827722842    -1.425427374076
    C           -0.486362386082     1.087875182474    -0.488817734697
    C           -2.246268464226     1.055987880753    -2.295367835118
    C           -2.280220180305     2.861511742304    -0.535267648594
    C           -0.472383984090     2.848874683398    -2.293776693103
    C           -3.168905193505     0.195388943459     0.378453164459
    C           -3.205964368566     1.999994905730     2.137858829355
    C           -1.396159857996     1.984514833215     0.380160694040
    C           -1.431513879794     3.787894963891     2.141072541737
    C           -0.543443715374     1.125080580058     3.078088699105
    C           -2.296015326177     1.101007032138     1.270417288917
    C           -2.331962907830     2.905174588702     3.031051541635
    C           -0.522930023044     2.887770168061     1.272713702488
    C            0.459861018636    -3.400784686306    -3.091272233887
    C            0.427888281102    -1.592709140130    -1.340492433389
    C            2.236328029313    -1.606929287331    -3.093574034751
    C            2.203662126507     0.200108708350    -1.338789980665
    C            3.092136229854    -2.456738384957    -0.390614871649
    C            1.335161390861    -2.491052997643    -2.201032331632
    C            1.305614001653    -0.682591612545    -0.450926786330
    C            3.111578325282    -0.698210209968    -2.202500158368
    C            2.217407496243    -3.365084999159    -1.282348551290
    C            0.406168086392    -3.345281975645     0.474183756131
    C            0.370090002128    -1.554176092739     2.216610026126
    C            2.185374844521    -1.554064785676     0.472866666085
    C            2.147953108378     0.237507880611     2.221341096677
    C            3.028614422960    -2.419909482552     3.176201962237
    C            1.272239071509    -2.429209508940     1.369872415877
    C            1.224117982534    -0.668697053197     3.084208666877
    C            3.066034837668    -0.656255686147     1.365314915636
    C            2.160547814134    -3.318529279317     2.284585804866
    C            0.444521367482     0.166841107045    -3.142432463261
    C            0.411804058499     1.973916044635    -1.379397216390
    C            2.219199898582     1.961400408157    -3.138436974150
    C            2.184984621950     3.767599850350    -1.373662067800
    C            3.078926309069     1.108384651737    -0.441753942603
    C            1.320646587296     1.075298094646    -2.250281238349
    C            1.286211040252     2.882624065578    -0.484665952999
    C            3.093872005992     2.869477720344    -2.243565628435
    C            0.401645200347     0.213105840486     0.423588304653
    C            0.359873624930     2.010552524699     2.186687491094
    C            2.169174388034     2.008266841778     0.428813945116
    C            2.134252955761     3.802979236201     2.194525192674
    C            3.021578393325     1.141038768703     3.124377552058
    C            1.269927949790     1.120547332223     1.315118240591
    C            1.233156832772     2.910099892064     3.081657571928
    C            3.043450208753     2.910131502333     1.324066606913
    H           -3.719016474120    -2.811651778185    -3.772185688341
    H           -3.730538804186    -4.030007627965    -2.519751591473
    H           -2.478610710468    -4.041839793114    -3.738620543598
    H           -3.762230158379    -2.222956558668    -0.761643762206
    H           -3.749737307319    -1.004378022630    -2.013813021299
    H           -1.943775305278    -1.020022960136    -3.773987434326
    H           -0.702499378360    -2.249684458173    -3.741943795048
    H           -1.972941417996    -3.997408950731    -0.712317094039
    H           -0.719862520837    -4.009814367760    -1.930563046133
    H           -3.768816431614    -2.763385683756    -0.206324733977
    H           -3.781425370657    -3.982260694932     1.045764330264
    H           -2.528563787189    -3.992705009641    -0.172170037150
    H           -3.820444011183    -2.176161558022     2.801865549668
    H           -3.804390993835    -0.958951175063     1.548711516264
    H            0.098920498761    -3.186114943115     3.821095128467
    H           -1.308255602570    -1.792403479380     3.781667733857
    H           -2.666483651017    -0.969094495478     4.043721274245
    H           -2.009935164786    -3.935080352769     2.868044246602
    H           -0.762890989215    -3.949735279793     1.643315736130
    H           -3.734698779265     0.754647278224    -3.820920943331
    H           -3.744913198277    -0.464070481733    -2.568958841392
    H           -2.493926826245    -0.474877410863    -3.788441317674
    H           -3.776606813050     1.341844922909    -0.810854517991
    H           -3.766766649173     2.560952637680    -2.061882189232
    H           -1.959976343903     2.547172890901    -3.820333030352
    H           -0.718546856894     1.318446752035    -3.788381820852
    H           -0.775220777204     4.375607593564    -0.807098532865
    H           -1.993835996360     4.353448572745    -2.059134006251
    H           -2.909746292848     3.483548452660     0.066136145289
    H            0.150439982785     3.462446423535    -2.910655404605
    H           -3.794999596193    -0.418090116349     0.994125084470
    H           -3.780777924461     0.801530007072    -0.256264898487
    H           -3.830276707734     1.387355799074     2.754149662933
    H           -3.817148491264     2.607047619849     1.503155801275
    H           -0.825027948282     4.415622186414     2.759975048095
    H           -2.042366869270     4.395499158339     1.506597939451
    H           -0.237371242578     1.462198702672     4.046368365212
    H           -1.720960030037     2.297650746516     3.665468496483
    H           -2.960878457233     3.528176612922     3.632094824799
    H            0.100711189030     3.503095378723     0.657015948381
    H           -0.152045756822    -2.795102443666    -3.726892092437
    H           -0.164017134914    -4.013488013692    -2.471677479852
    H            1.088956788953    -4.025151125181    -3.690698647370
    H            1.624186345447    -1.001189674872    -3.729557403214
    H            2.866157867749    -2.230696112367    -3.692853840852
    H            3.718038107069    -1.845864223772    -1.007035351033
    H            3.701485818186    -3.064395795898     0.245282029442
    H            4.085438213146    -1.021231797982    -2.506059825462
    H            1.593315715773    -3.975571844765    -0.663652217046
    H            2.847064887527    -3.989788663914    -1.880833191232
    H            1.037441235775    -3.969360109570    -0.123699181735
    H           -0.210822447405    -3.956074415759     1.099571472539
    H            3.641294859488    -3.028900886178     3.807606326884
    H            2.398384230833    -1.801103829558     3.780175535212
    H            3.651347750108    -1.803268076375     2.562319899000
    H            0.880161808676    -0.987727238849     4.045878251554
    H            4.040572744141    -0.983343221288     1.068356817247
    H            1.537457408383    -3.934872735874     2.898414814615
    H            2.789077397895    -3.938134219916     1.679660282158
    H           -0.168281281232     0.773647138450    -3.775022386304
    H            1.073274951922    -0.455780804627    -3.744668710832
    H            1.606903159525     2.568991445469    -3.771550548577
    H            2.848750249776     1.340153392166    -3.740610627284
    H            1.572772119997     4.374533171750    -2.007477817001
    H            2.790610649753     4.396042802078    -0.754653845747
    H            4.040553491045     1.438843113390    -0.108640047655
    H            0.656278083475     3.502333419031     0.117077352440
    H            3.716675088782     3.483606541518    -2.859910848085
    H            3.706337188328     2.262259513485    -1.610267075008
    H            2.739395430865     4.428901048669     2.816563320847
    H            1.521999849492     4.412621848275     1.563364141734
    H            3.646457569095     1.722338942739     3.769758528265
    H            1.843187527147     2.302091843423     3.712584598896
    H            0.603248051015     3.529686284835     3.685186317934
    H            3.667686143233     3.525120958892     0.710033395154
    H            3.654847308889     2.300833739372     1.956399138172
    H           -1.683580948639     0.001185805013     3.620065043580
    H           -1.205279668810     0.480170875399     3.619687189016
    H            3.640916567074    -0.034733181687    -1.550350568918
    H            1.861069934818    -0.010775982228     3.637669838923
    H            3.593317466914     0.001003447897     2.024762149093
    H            3.632305006729     0.449804708135    -1.078220580174
    H            2.153644863818     1.651456374561     3.479758169303
    H            3.894743370899     0.658413126988     2.737632865616

gradient() will perform analytic gradient computation.
   => Loading Basis Set <=

    Name: STO-3G
    Role: ORBITAL
    Keyword: BASIS
    atoms 1-4, 6-67 entry C          line    60 file /home/hrgrimsl/psi4conda/share/psi4/basis/sto-3g.gbs 
    atoms 5         entry N          line    70 file /home/hrgrimsl/psi4conda/share/psi4/basis/sto-3g.gbs 
    atoms 68-151    entry H          line    18 file /home/hrgrimsl/psi4conda/share/psi4/basis/sto-3g.gbs 

