
    -----------------------------------------------------------------------
          Psi4: An Open-Source Ab Initio Electronic Structure Package
                               Psi4 1.1rc1 

                         Git: Rev {HEAD} 6db9b1f 


    R. M. Parrish, L. A. Burns, D. G. A. Smith, A. C. Simmonett,
    A. E. DePrince III, E. G. Hohenstein, U. Bozkaya, A. Yu. Sokolov,
    R. Di Remigio, R. M. Richard, J. F. Gonthier, A. M. James,
    H. R. McAlexander, A. Kumar, M. Saitow, X. Wang, B. P. Pritchard,
    P. Verma, H. F. Schaefer III, K. Patkowski, R. A. King, E. F. Valeev,
    F. A. Evangelista, J. M. Turney, T. D. Crawford, and C. D. Sherrill,
    submitted.

    -----------------------------------------------------------------------


    Psi4 started on: Thursday, 06 December 2018 05:49PM

    Process ID:  15459
    PSIDATADIR: /home/hrgrimsl/psi4conda/share/psi4
    Memory:     500.0 MiB
    Threads:    1
    
  ==> Input File <==

--------------------------------------------------------------------------
# PYTHONPATH must include directory above plugin directory.
#     Define either externally or here, then import plugin.
sys.path.insert(0, '.')

import os

#Set this up like a dictionary
SI = {
'name': 'nvdiamond+',
'basis': 'sto-3g/sto-3g',
'frags': '-1/1',
'methods': 'scf/scf',
'scratch': 'scr',
'envir': 'local'
}

sifile = open('SI.txt', 'w')
sifile.write(SI['name']+'\n')
sifile.write(SI['frags']+'\n')
sifile.write(SI['methods']+'\n')
sifile.write(SI['basis']+'\n')
sifile.write(SI['scratch']+'\n')
sifile.write(SI['envir']+'\n')
sifile.close()
import scf_template

molecule {
1 1
  C       -2.97755       -3.60750       -3.08602
   C       -3.14199       -1.90543       -1.24857
   C       -1.33867       -1.74059       -3.04234
   C       -1.48012        0.06853       -1.17198
   N       -0.12495       -2.71272       -0.68467
   C       -2.15011       -2.67667       -2.17172
   C       -2.52849       -1.01833       -0.10351
   C       -0.45448       -0.84676       -2.17196
   C       -1.11965       -3.51499       -1.40880
   C       -4.10512       -2.87143        1.25743
   C       -3.15537       -1.30003        2.82638
   C       -1.34690        0.37910        2.35596
   C       -0.56458       -2.74477        2.80231
   C       -2.75614       -2.01862        1.44535
   C       -2.18905       -0.31235        3.41229
   C       -0.32660       -0.55313        1.52322
   C       -1.78992       -3.11799        1.95293
   C       -3.67062        0.68873       -3.07060
   C       -3.25755        2.35316       -1.35366
   C       -1.67959        2.17270       -3.08724
   C       -1.38532        3.88866       -1.36474
   C       -0.51679        1.09868       -0.39333
   C       -2.52130        1.22305       -2.17466
   C       -2.28271        3.05916       -0.44991
   C       -0.62374        2.92319       -2.27434
   C       -3.32344        0.13642        0.48986
   C       -3.45876        2.05062        2.08037
   C       -1.47201        2.07286        0.46749
   C       -1.67773        3.87347        2.34746
   C       -0.46103        1.38197        3.18293
   C       -2.40072        1.15494        1.34260
   C       -2.94318        3.22354        2.88844
   C       -0.69649        2.99377        1.47590
   C        1.55576       -3.58002       -3.37148
   C        0.68775       -1.73486       -1.43766
   C        2.88384       -1.52846       -3.18187
   C        2.29577        0.29526       -1.45182
   C        3.50897       -2.43662       -0.22617
   C        1.98009       -2.49370       -2.35606
   C        1.48012       -0.72105       -0.46199
   C        3.35184       -0.33895       -2.39170
   C        3.07025       -3.20199       -1.45803
   C        0.64620       -3.51860        0.20810
   C        0.42680       -1.77087        2.15273
   C        2.40370       -1.64930        0.50629
   C        2.21891        0.07941        2.41206
   C        3.04455       -3.83125        3.26092
   C        1.43476       -2.67499        1.24779
   C        1.32543       -1.02754        3.14154
   C        3.14522       -0.82042        1.58301
   C        2.17432       -3.91203        2.01657
   C        0.32628        0.04597       -3.10320
   C        0.34242        1.99266       -1.44153
   C        1.84118        1.93592       -3.51755
   C        2.21434        3.77602       -1.77624
   C        3.13190        1.26673       -0.58359
   C        1.20962        1.07013       -2.37330
   C        1.41445        2.90605       -0.73235
   C        2.68745        3.11090       -3.06503
   C        0.47842        0.22973        0.48023
   C        0.41273        2.19861        2.24911
   C        2.25728        2.09600        0.34248
   C        2.33056        3.94998        2.13250
   C        3.07409        0.65932        3.56154
   C        1.36417        1.18062        1.37409
   C        1.31659        3.21080        3.00868
   C        3.12564        3.07274        1.16543
   H       -3.70502       -3.03703       -3.67454
   H       -3.52834       -4.35083       -2.49869
   H       -2.33737       -4.15199       -3.78960
   H       -3.86331       -2.63497       -0.91057
   H       -3.78303       -1.30133       -1.87299
   H       -1.96199       -1.16631       -3.71401
   H       -0.73960       -2.32013       -3.74242
   H       -1.67957       -4.17054       -0.73565
   H       -0.63660       -4.21414       -2.09069
   H       -4.92109       -2.26554        0.84934
   H       -4.48148       -3.26696        2.21102
   H       -3.94283       -3.76230        0.63979
   H       -3.30615       -2.06293        3.60774
   H       -4.15745       -0.85617        2.79300
   H       -0.08086       -3.68242        3.08319
   H       -0.87045       -2.41403        3.79332
   H       -2.76751        0.41399        3.99737
   H       -2.35193       -3.76173        2.65322
   H       -1.62395       -3.83909        1.17424
   H       -4.08094        1.50217       -3.68717
   H       -4.53188        0.34791       -2.48950
   H       -3.39544       -0.06625       -3.79619
   H       -4.18804        2.10366       -0.84606
   H       -3.68424        3.10005       -2.04604
   H       -2.33567        2.94255       -3.53026
   H       -1.34339        1.74818       -4.02442
   H       -0.73648        4.57644       -0.82259
   H       -2.00079        4.56345       -1.97758
   H       -2.87411        3.77334        0.12752
   H       -0.08137        3.55856       -2.97785
   H       -4.18570       -0.17519        1.07542
   H       -3.91779        0.53308       -0.30130
   H       -4.10763        1.44999        2.72704
   H       -4.16395        2.45454        1.34399
   H       -1.16275        4.35800        3.18067
   H       -1.99086        4.72863        1.73190
   H        0.13908        0.93821        3.96491
   H       -2.80374        2.91748        3.93080
   H       -3.73156        3.98573        2.95112
   H       -0.20411        3.80752        0.97998
   H        0.91027       -3.19989       -4.16075
   H        1.10463       -4.44995       -2.89607
   H        2.43666       -3.97799       -3.89498
   H        2.46416       -1.24367       -4.14857
   H        3.78819       -2.05056       -3.53207
   H        4.34598       -1.78128       -0.46583
   H        4.01605       -3.13558        0.44763
   H        3.76440        0.39349       -3.09188
   H        2.80502       -4.23120       -1.20869
   H        3.98274       -3.39448       -2.04338
   H        1.25250       -4.22084       -0.34686
   H        0.04488       -4.25896        0.73239
   H        3.42843       -4.83652        3.47878
   H        2.47996       -3.54389        4.15006
   H        3.92850       -3.20705        3.14367
   H        0.77002       -0.68222        4.00854
   H        4.02543       -0.28842        1.24364
   H        1.41446       -4.66102        2.27646
   H        2.77200       -4.46134        1.27817
   H       -0.30057        0.46031       -3.86828
   H        0.88959       -0.56612       -3.78564
   H        1.04889        2.32817       -4.16709
   H        2.41615        1.32477       -4.22200
   H        1.56233        4.61044       -2.07153
   H        3.06465        4.28238       -1.31131
   H        3.95140        0.78053       -0.08045
   H        0.96213        3.71564       -0.20241
   H        2.71024        3.86330       -3.86446
   H        3.73311        2.79945       -2.97393
   H        3.03554        4.48185        2.78378
   H        1.81385        4.73548        1.56918
   H        3.72957        1.47335        3.27348
   H        1.84815        2.73340        3.82575
   H        0.72721        3.96563        3.53482
   H        3.71070        3.73380        0.51890
   H        3.89884        2.52212        1.69985
   H       -1.57241       -0.75016        4.19873
   H       -1.07120        2.01686        3.82063
   H        4.26383       -0.59374       -1.85324
   H        1.99562       -1.71451        3.64960
   H        3.64689       -1.51807        2.25366
   H        3.73592        1.92226       -1.21001
   H        2.45951        0.97067        4.41009
   H        3.73958       -0.10939        3.97811
}

optimize('scf_template')
--------------------------------------------------------------------------
gradient() will perform analytic gradient computation.
   => Loading Basis Set <=

    Name: STO-3G
    Role: ORBITAL
    Keyword: BASIS
    atoms 1-4, 6-67 entry C          line    60 file /home/hrgrimsl/psi4conda/share/psi4/basis/sto-3g.gbs 
    atoms 5         entry N          line    70 file /home/hrgrimsl/psi4conda/share/psi4/basis/sto-3g.gbs 
    atoms 68-151    entry H          line    18 file /home/hrgrimsl/psi4conda/share/psi4/basis/sto-3g.gbs 


			-----------------------------------------
			 OPTKING 2.0: for geometry optimizations 
			  - R.A. King,  Bethel University        
			-----------------------------------------

	Internal coordinates to be generated automatically.
	Detected frag 1 with atoms:  1 2 3 4 5 6 7 8 9 10 11 12 13 14 15 16 17 18 19 20
	 21 22 23 24 25 26 27 28 29 30 31 32 33 34 35 36 37 38 39 40
	 41 42 43 44 45 46 47 48 49 50 51 52 53 54 55 56 57 58 59 60
	 61 62 63 64 65 66 67 68 69 70 71 72 73 74 75 76 77 78 79 80
	 81 82 83 84 85 86 87 88 89 90 91 92 93 94 95 96 97 98 99 100
	 101 102 103 104 105 106 107 108 109 110 111 112 113 114 115 116 117 118 119 120
	 121 122 123 124 125 126 127 128 129 130 131 132 133 134 135 136 137 138 139 140
	 141 142 143 144 145 146 147 148 149 150 151
	---Fragment 1 Bond Connectivity---
	 1 : 6 68 69 70
	 2 : 6 7 71 72
	 3 : 6 8 73 74
	 4 : 7 8 22 23
	 5 : 9 35 43
	 6 : 1 2 3 9
	 7 : 2 4 14 26
	 8 : 3 4 35 52
	 9 : 5 6 75 76
	 10 : 14 77 78 79
	 11 : 14 15 80 81
	 12 : 15 16 30 31
	 13 : 17 44 82 83
	 14 : 7 10 11 17
	 15 : 11 12 84 144
	 16 : 12 44 60
	 17 : 13 14 85 86
	 18 : 23 87 88 89
	 19 : 23 24 90 91
	 20 : 23 25 92 93
	 21 : 24 25 94 95
	 22 : 4 28 53 60
	 23 : 4 18 19 20
	 24 : 19 21 28 96
	 25 : 20 21 53 97
	 26 : 7 31 98 99
	 27 : 31 32 100 101
	 28 : 22 24 31 33
	 29 : 32 33 102 103
	 30 : 12 61 104 145
	 31 : 12 26 27 28
	 32 : 27 29 105 106
	 33 : 28 29 61 107
	 34 : 39 108 109 110
	 35 : 5 8 39 40
	 36 : 39 41 111 112
	 37 : 40 41 56 57
	 38 : 42 45 113 114
	 39 : 34 35 36 42
	 40 : 35 37 45 60
	 41 : 36 37 115 146
	 42 : 38 39 116 117
	 43 : 5 48 118 119
	 44 : 13 16 48 49
	 45 : 38 40 48 50
	 46 : 49 50 64 65
	 47 : 51 120 121 122
	 48 : 43 44 45 51
	 49 : 44 46 123 147
	 50 : 45 46 124 148
	 51 : 47 48 125 126
	 52 : 8 57 127 128
	 53 : 22 25 57 58
	 54 : 57 59 129 130
	 55 : 58 59 131 132
	 56 : 37 62 133 149
	 57 : 37 52 53 54
	 58 : 53 55 62 134
	 59 : 54 55 135 136
	 60 : 16 22 40 65
	 61 : 30 33 65 66
	 62 : 56 58 65 67
	 63 : 66 67 137 138
	 64 : 46 139 150 151
	 65 : 46 60 61 62
	 66 : 61 63 140 141
	 67 : 62 63 142 143
	 68 : 1
	 69 : 1
	 70 : 1
	 71 : 2
	 72 : 2
	 73 : 3
	 74 : 3
	 75 : 9
	 76 : 9
	 77 : 10
	 78 : 10
	 79 : 10
	 80 : 11
	 81 : 11
	 82 : 13
	 83 : 13
	 84 : 15
	 85 : 17
	 86 : 17
	 87 : 18
	 88 : 18
	 89 : 18
	 90 : 19
	 91 : 19
	 92 : 20
	 93 : 20
	 94 : 21
	 95 : 21
	 96 : 24
	 97 : 25
	 98 : 26
	 99 : 26
	 100 : 27
	 101 : 27
	 102 : 29
	 103 : 29
	 104 : 30
	 105 : 32
	 106 : 32
	 107 : 33
	 108 : 34
	 109 : 34
	 110 : 34
	 111 : 36
	 112 : 36
	 113 : 38
	 114 : 38
	 115 : 41
	 116 : 42
	 117 : 42
	 118 : 43
	 119 : 43
	 120 : 47
	 121 : 47
	 122 : 47
	 123 : 49
	 124 : 50
	 125 : 51
	 126 : 51
	 127 : 52
	 128 : 52
	 129 : 54
	 130 : 54
	 131 : 55
	 132 : 55
	 133 : 56
	 134 : 58
	 135 : 59
	 136 : 59
	 137 : 63
	 138 : 63
	 139 : 64
	 140 : 66
	 141 : 66
	 142 : 67
	 143 : 67
	 144 : 15
	 145 : 30
	 146 : 41
	 147 : 49
	 148 : 50
	 149 : 56
	 150 : 64
	 151 : 64

	---Fragment 1 Geometry and Gradient---
	 C          -5.6569871163       -6.8271211657       -5.8463425015
	 C          -5.9677336816       -3.6106750067       -2.3740652186
	 C          -2.5599527516       -3.2991725509       -5.7637992640
	 C          -2.8272545131        0.1195687906       -2.2293310941
	 N          -0.2663543496       -5.1362320165       -1.3084486523
	 C          -4.0933521249       -5.0681073894       -4.1185658982
	 C          -4.8083866991       -1.9342989542       -0.2102154129
	 C          -0.8890758022       -1.6100786416       -4.1190194324
	 C          -2.1460649340       -6.6523026011       -2.6768560369
	 C          -7.7877856120       -5.4361504510        2.3615884704
	 C          -5.9930182173       -2.4666348058        5.3264742866
	 C          -2.5755051977        0.7064610357        4.4375093192
	 C          -1.0971346494       -5.1967977390        5.2809885786
	 C          -5.2385828532       -3.8245731076        2.7167058053
	 C          -4.1669380605       -0.6001900989        6.4336837251
	 C          -0.6474176243       -1.0551983572        2.8638587793
	 C          -3.4126916691       -5.9020813263        3.6758929958
	 C          -6.9666996072        1.2915769382       -5.8172029245
	 C          -6.1861104335        4.4368938056       -2.5726565379
	 C          -3.2041981849        4.0958738277       -5.8486479673
	 C          -2.6481084757        7.3385682826       -2.5935947034
	 C          -1.0068246375        2.0662701664       -0.7578958407
	 C          -4.7947995682        2.3012954056       -4.1241216930
	 C          -4.3439298101        5.7710404554       -0.8648165453
	 C          -1.2089308475        5.5140943931       -4.3124895939
	 C          -6.3106244884        0.2478622978        0.9110913826
	 C          -6.5663422287        3.8651760613        3.9167196942
	 C          -2.8119288342        3.9072035705        0.8688182090
	 C          -3.2006832943        7.3098633427        4.4214466471
	 C          -0.9014535084        2.6016106826        6.0002561393
	 C          -4.5669363911        2.1725861586        2.5225364452
	 C          -5.5920372291        6.0816736371        5.4437506904
	 C          -1.3464084236        5.6474712636        2.7744369387
	 C           2.9097272592       -6.7751914915       -6.3857837234
	 C           1.2694260786       -3.2883444202       -2.7313935331
	 C           5.4194347417       -2.8983049463       -6.0274727513
	 C           4.3081434948        0.5480263967       -2.7581520551
	 C           6.6007592392       -4.6144786312       -0.4420092203
	 C           3.7115947491       -4.7223441988       -4.4669180135
	 C           2.7667883745       -1.3725211694       -0.8876444370
	 C           6.3038265719       -0.6504568140       -4.5342678529
	 C           5.7716985902       -6.0608183215       -2.7698872544
	 C           1.1909079577       -6.6591245124        0.3786421474
	 C           0.7763020442       -3.3563934582        4.0534602772
	 C           4.5121016363       -3.1266594522        0.9421395830
	 C           4.1628991442        0.1401290109        4.5435229552
	 C           5.7231326285       -7.2499473879        6.1476358804
	 C           2.6810703971       -5.0649326495        2.3433715105
	 C           2.4744666390       -1.9517033319        5.9220403747
	 C           5.9133713583       -1.5603032552        2.9768455048
	 C           4.0786362559       -7.4025994649        3.7961551669
	 C           0.5863467733        0.0769365691       -5.8788079964
	 C           0.6168469531        3.7556475347       -2.7387067732
	 C           3.4490928920        3.6484244739       -6.6618160196
	 C           4.1542630958        7.1257095310       -3.3712170071
	 C           5.8882002063        2.3838386430       -1.1174351347
	 C           2.2556174555        2.0123184853       -4.4994968920
	 C           2.6426900593        5.4817044872       -1.3985507943
	 C           5.0483114265        5.8688148855       -5.8066771499
	 C           0.8738497072        0.4241926432        0.8928933199
	 C           0.7497135975        4.1448366318        4.2355920819
	 C           4.2354079359        3.9509318333        0.6325835451
	 C           4.3738870669        7.4544462891        4.0152311175
	 C           5.7789551385        1.2360000927        6.7157253505
	 C           2.5476746294        2.2211143257        2.5820439211
	 C           2.4577614600        6.0575985262        5.6709713606
	 C           5.8763705207        5.7967029363        2.1877336662
	 H          -7.0317061862       -5.7490890986       -6.9584841252
	 H          -6.6978293730       -8.2318112920       -4.7364496518
	 H          -4.4472222406       -7.8560581477       -7.1759160140
	 H          -7.3308309358       -4.9893058096       -1.7353377857
	 H          -7.1791237218       -2.4690914498       -3.5540480105
	 H          -3.7378568448       -2.2139406273       -7.0330716157
	 H          -1.4278745172       -4.3943444340       -7.0867587351
	 H          -3.2041603903       -7.8911125675       -1.4047868905
	 H          -1.2332327255       -7.9735046269       -3.9654413896
	 H          -9.3297454446       -4.2911842844        1.5904101329
	 H          -8.4990029393       -6.1835938284        4.1636124135
	 H          -7.4811019579       -7.1196507710        1.1944180217
	 H          -6.2779511236       -3.9083068726        6.8030306978
	 H          -7.8866749805       -1.6278609645        5.2633952283
	 H          -0.1830363244       -6.9686994475        5.8117748548
	 H          -1.6751451817       -4.5717897178        7.1537260735
	 H          -5.2600690394        0.7723935805        7.5393246910
	 H          -4.4747366530       -7.1185736271        4.9992493094
	 H          -3.0990538228       -7.2647628408        2.2043821534
	 H          -7.7420920341        2.8287557638       -6.9823513662
	 H          -8.5942451364        0.6475204776       -4.7190830687
	 H          -6.4466847700       -0.1351284976       -7.1883693093
	 H          -7.9444817029        3.9654071354       -1.6134315528
	 H          -6.9924376772        5.8483113570       -3.8810651178
	 H          -4.4440097061        5.5506794911       -6.6858344387
	 H          -2.5688722590        3.2936472897       -7.6196615046
	 H          -1.4219785717        8.6382841223       -1.5690796805
	 H          -3.8111782187        8.6137365798       -3.7516944667
	 H          -5.4615138451        7.1206450650        0.2263680156
	 H          -0.1840000848        6.7147696862       -5.6419308257
	 H          -7.9400597438       -0.3409952625        2.0176394170
	 H          -7.4337832155        0.9974410656       -0.5839843447
	 H          -7.7925288246        2.7301498542        5.1387488926
	 H          -7.8989582004        4.6284742409        2.5251631645
	 H          -2.2275121303        8.2254923458        5.9959853582
	 H          -3.7924132382        8.9258815425        3.2582068287
	 H           0.2325900412        1.7630258139        7.4779841807
	 H          -5.3285338171        5.5033040569        7.4135256223
	 H          -7.0818595178        7.5220039984        5.5621987244
	 H          -0.4159450703        7.1852359042        1.8372839549
	 H           1.6899279377       -6.0568498966       -7.8772878683
	 H           2.0572151088       -8.4191209463       -5.4873890225
	 H           4.5743870096       -7.5272458006       -7.3750553539
	 H           4.6263544783       -2.3601298410       -7.8542710040
	 H           7.1284085700       -3.8849309603       -6.6892548430
	 H           8.1824789097       -3.3760655073       -0.8949009853
	 H           7.5590015666       -5.9353216090        0.8312882480
	 H           7.0834519853        0.7336541948       -5.8574162966
	 H           5.2704865279       -8.0057433547       -2.2987029404
	 H           7.4960547892       -6.4245717048       -3.8760384463
	 H           2.3366489121       -7.9861657920       -0.6700802673
	 H           0.0545778395       -8.0582021522        1.3694066616
	 H           6.4485606964       -9.1496323775        6.5593316157
	 H           4.6562121512       -6.7069156863        7.8278669742
	 H           7.3935560437       -6.0703803357        5.9260654913
	 H           1.4248938475       -1.2991431036        7.5604329319
	 H           7.5767271978       -0.5549689525        2.3355291470
	 H           2.6427089566       -8.8179854412        4.2872760916
	 H           5.2080877710       -8.4406449270        2.4007813904
	 H          -0.5982280531        0.8599256950       -7.3245996662
	 H           1.6508484012       -1.0797458996       -7.1684326985
	 H           1.9518817742        4.3896695495       -7.8892687319
	 H           4.5356287266        2.4935183478       -7.9930335939
	 H           2.9221427599        8.7025348108       -3.9292342369
	 H           5.7611161238        8.0825912557       -2.4926266362
	 H           7.4368307722        1.4650537972       -0.1666383282
	 H           1.7879291349        7.0116078671       -0.3971093274
	 H           5.0913782851        7.2906448279       -7.3173809123
	 H           7.0243224546        5.2802596814       -5.6345230992
	 H           5.7061061961        8.4595349274        5.2459719534
	 H           3.3974466768        8.9388261665        2.9507105923
	 H           7.0176328241        2.7742938566        6.1713708406
	 H           3.4622642832        5.1554432704        7.2150098920
	 H           1.3439946718        7.4840205031        6.6652318682
	 H           6.9819736920        7.0459252937        0.9659690295
	 H           7.3375067666        4.7561819330        3.1976411061
	 H          -3.0016573379       -1.4275310971        7.9198399451
	 H          -2.0545077029        3.8013789071        7.2053344942
	 H           8.0272379079       -1.1319401354       -3.5167259194
	 H           3.7409421960       -3.2498884934        6.8821346337
	 H           6.8613902674       -2.8786706918        4.2441903358
	 H           7.0296325850        3.6226108149       -2.3011973789
	 H           4.6175672518        1.8243663241        8.3192524605
	 H           7.0365489827       -0.2166512829        7.5029285656
	             0.0116168474        0.0127025617        0.0081026452
	             0.0213865961       -0.0001750252       -0.0059974258
	            -0.0034874251       -0.0011116084        0.0249898631
	            -0.0193937254        0.0070899686        0.0197937866
	             0.0195366068       -0.0202700647       -0.0127848467
	             0.0091424600        0.0029745176        0.0059752409
	            -0.0120355697       -0.0039817941       -0.0148375088
	             0.0113677432       -0.0062970909       -0.0051699810
	             0.0067270939        0.0209538056       -0.0010108657
	            -0.0015668000       -0.0037969100        0.0213030500
	             0.0264161774        0.0106509968        0.0050016487
	            -0.0074941931       -0.0069585917        0.0081879406
	            -0.0059463835        0.0154602052       -0.0205390696
	             0.0077455727        0.0172818135       -0.0115409276
	            -0.0027937148       -0.0044715824       -0.0351570361
	             0.0372859727        0.0204977966        0.0262187793
	             0.0055486789        0.0319061812       -0.0132421664
	             0.0193334600        0.0104177500        0.0118483400
	             0.0346598511        0.0109893947       -0.0006298289
	             0.0004765563        0.0031500445        0.0286493862
	            -0.0062760911       -0.0231148520       -0.0032821183
	             0.0055367928       -0.0113145419        0.0158773462
	             0.0028440932        0.0186486601       -0.0178882327
	             0.0087667293       -0.0146121230       -0.0181676359
	            -0.0214681008       -0.0073374748        0.0125813886
	             0.0339934985       -0.0133375857       -0.0055691817
	             0.0234657221        0.0148064907        0.0077969852
	            -0.0060655158       -0.0035583096       -0.0017552228
	            -0.0120777639       -0.0145341004        0.0046503048
	             0.0015070767        0.0030643626       -0.0241456217
	             0.0004147415        0.0140028608        0.0012475270
	             0.0097608533       -0.0076351186       -0.0377007704
	            -0.0202451581       -0.0159942581        0.0175862623
	             0.0051298898        0.0175161399        0.0127897347
	            -0.0063974480       -0.0083655562        0.0034219046
	             0.0007585357        0.0063510087        0.0361492936
	             0.0076787153       -0.0030958956       -0.0035976579
	            -0.0273692030       -0.0022473685       -0.0078459031
	             0.0074190924       -0.0042482947       -0.0016326018
	             0.0054409445        0.0006506694       -0.0006794110
	            -0.0259204648       -0.0123006267        0.0000348535
	             0.0010935921        0.0286707452        0.0064669604
	            -0.0069334733        0.0281610801       -0.0177360776
	            -0.0109767240        0.0100097259        0.0007426112
	             0.0053060045       -0.0073320005       -0.0028429610
	             0.0242867500       -0.0118815008        0.0046301990
	            -0.0157566400       -0.0010877700       -0.0238921900
	             0.0014964054       -0.0018368500        0.0030270713
	            -0.0088356421       -0.0098629621       -0.0292368084
	            -0.0244513188        0.0012602341       -0.0008841184
	             0.0156179382        0.0028697993        0.0165293442
	            -0.0029475791       -0.0060364038        0.0291232766
	             0.0007614086       -0.0009045416       -0.0022294706
	             0.0101034393        0.0101995409        0.0204325996
	             0.0041114467       -0.0138263694       -0.0095567026
	            -0.0276478428        0.0015961493        0.0040293536
	            -0.0072168957        0.0035033058       -0.0001939965
	             0.0179347985       -0.0123783885       -0.0251605996
	            -0.0361545801       -0.0066982367        0.0123480987
	            -0.0142638053        0.0020846500        0.0051766332
	            -0.0062175688        0.0025380859        0.0038647004
	             0.0007923596       -0.0012672089       -0.0057819969
	            -0.0011424101       -0.0260600679        0.0004574887
	            -0.0092767200       -0.0103997800       -0.0203992400
	            -0.0125582450       -0.0068118749       -0.0066889919
	             0.0020309572       -0.0013768518       -0.0233298509
	            -0.0242367239       -0.0031591773        0.0036197284
	            -0.0058107300        0.0034709200       -0.0056396600
	            -0.0042253100       -0.0063501200        0.0038042700
	             0.0033768300       -0.0058368500       -0.0067717400
	            -0.0035089800        0.0072502700       -0.0189496300
	            -0.0061101900       -0.0151194800        0.0103326900
	             0.0089505309       -0.0111782973       -0.0069355301
	            -0.0067970375        0.0036940920       -0.0085132555
	            -0.0082541356       -0.0075308765       -0.0113190809
	            -0.0036353737       -0.0009282581        0.0101263179
	            -0.0082597100        0.0046153800        0.0037715100
	            -0.0119647200       -0.0101204100        0.0060858700
	             0.0017350700       -0.0125142600        0.0045497700
	            -0.0065441300        0.0017848400        0.0200218200
	            -0.0096544500       -0.0056616200        0.0160316500
	            -0.0070679104       -0.0013160268        0.0129135308
	             0.0115903342       -0.0168735731        0.0073216220
	            -0.0046826183       -0.0034544173        0.0143820610
	             0.0030291913       -0.0168496865        0.0086322216
	            -0.0252518680       -0.0021777143        0.0180206926
	            -0.0107898100        0.0025376400       -0.0106930000
	            -0.0108088100        0.0074328400       -0.0001253000
	            -0.0063130300        0.0094841900       -0.0055774900
	            -0.0117523446        0.0260061336       -0.0139363207
	            -0.0180501886        0.0127119147       -0.0008978592
	            -0.0012182676        0.0102177255       -0.0190206881
	            -0.0230002154        0.0228488779       -0.0085506193
	            -0.0065797957        0.0109321493       -0.0051171913
	            -0.0025605650        0.0119874417       -0.0044935477
	            -0.0066911740        0.0071509588       -0.0128783957
	            -0.0120811123        0.0089294388       -0.0023935411
	            -0.0157176685        0.0106110159       -0.0201689072
	            -0.0114204721       -0.0428886002        0.0225071626
	            -0.0100768779        0.0028372855        0.0019500990
	            -0.0119477068        0.0054471430        0.0046601200
	            -0.0068430300        0.0086475800        0.0031212800
	            -0.0041162100        0.0126688400        0.0035058900
	            -0.0077508402        0.0282985087        0.0085815253
	            -0.0065435703        0.0028328546        0.0073663654
	            -0.0061829683        0.0060872632        0.0032784806
	            -0.0143625500        0.0013724100        0.0278756900
	             0.0056656300       -0.0006337300       -0.0069997100
	             0.0072942700       -0.0069160600       -0.0004331100
	             0.0045566700       -0.0087790300       -0.0090255500
	             0.0180615800       -0.0085959500       -0.0113654200
	             0.0127924500        0.0031000100       -0.0124052200
	             0.0108048509       -0.0099663139        0.0101886813
	             0.0156322962       -0.0003632990       -0.0039548596
	             0.0163222950       -0.0059434305       -0.0027315355
	             0.0177730900       -0.0080288400       -0.0099140600
	             0.0142469800       -0.0110196000        0.0019499200
	            -0.0297454600       -0.0058321600        0.0090156900
	             0.0191332000       -0.0164028700       -0.0072774200
	             0.0053923700       -0.0067831200        0.0054126300
	            -0.0038106700       -0.0076717500        0.0058836400
	             0.0062600500       -0.0060911600       -0.0010839900
	             0.0125102000       -0.0196965200        0.0102286000
	             0.0086531065       -0.0136544366        0.0233217862
	             0.0039226800       -0.0146948400        0.0026098700
	             0.0023705000       -0.0155039600        0.0030537800
	             0.0208903700       -0.0304018300       -0.0092222700
	            -0.0244072800        0.0146727100       -0.0117346100
	             0.0039765636        0.0030970002       -0.0145954962
	            -0.0018113538        0.0032830431       -0.0128004425
	             0.0020836400        0.0117624500       -0.0052625000
	             0.0024638300        0.0083747600       -0.0050596400
	             0.0077110149        0.0234544474       -0.0165769791
	             0.0273077200       -0.0039774700       -0.0182849200
	             0.0025896200        0.0054216952       -0.0065180739
	             0.0065842354        0.0029885964       -0.0061668765
	             0.0048262617        0.0046363197        0.0034693541
	            -0.0009312168        0.0076308450       -0.0000677799
	             0.0043671800       -0.0054144700        0.0046019400
	            -0.0039007572        0.0127499751        0.0042152011
	             0.0069561525        0.0033927518        0.0086086909
	             0.0089365232        0.0030790572        0.0042923319
	             0.0074991549        0.0059431101       -0.0054694039
	            -0.0062250697        0.0096184860        0.0125737978
	             0.0107134846       -0.0091831031        0.0160170792
	             0.0103272725        0.0100795371       -0.0128764594
	            -0.0098422700        0.0035104600        0.0113954000
	             0.0138328356        0.0044944519       -0.0029682650
	             0.0171225287       -0.0080950936        0.0080549785
	            -0.0004999300       -0.0063516200        0.0096031100
	             0.0091440800       -0.0026764400        0.0098918200

	Previous optimization step data not found.  Starting new optimization.

	---Fragment 1 Intrafragment Coordinates---
	 - Coordinate -           - BOHR/RAD -       - ANG/DEG -
	 R(1,6)           =         2.919640	       1.545007
	 R(1,68)          =         2.070957	       1.095903
	 R(1,69)          =         2.070838	       1.095840
	 R(1,70)          =         2.071233	       1.096050
	 R(2,6)           =         2.946302	       1.559116
	 R(2,7)           =         2.972637	       1.573052
	 R(2,71)          =         2.041232	       1.080174
	 R(2,72)          =         2.040352	       1.079708
	 R(3,6)           =         2.861335	       1.514153
	 R(3,8)           =         2.889666	       1.529145
	 R(3,73)          =         2.043585	       1.081418
	 R(3,74)          =         2.056994	       1.088514
	 R(4,7)           =         3.495724	       1.849857
	 R(4,8)           =         3.212342	       1.699898
	 R(4,22)          =         3.044459	       1.611059
	 R(4,23)          =         3.495911	       1.849957
	 R(5,9)           =         2.775666	       1.468819
	 R(5,35)          =         2.792505	       1.477730
	 R(5,43)          =         2.699832	       1.428689
	 R(6,9)           =         2.894845	       1.531886
	 R(7,14)          =         3.510708	       1.857787
	 R(7,26)          =         2.876782	       1.522328
	 R(8,35)          =         3.066140	       1.622531
	 R(8,52)          =         2.849517	       1.507900
	 R(9,75)          =         2.066973	       1.093795
	 R(9,76)          =         2.058954	       1.089551
	 R(10,14)         =         3.036729	       1.606968
	 R(10,77)         =         2.069614	       1.095193
	 R(10,78)         =         2.076485	       1.098829
	 R(10,79)         =         2.071356	       1.096114
	 R(11,14)         =         3.037114	       1.607171
	 R(11,15)         =         2.836212	       1.500859
	 R(11,80)         =         2.083224	       1.102395
	 R(11,81)         =         2.072066	       1.096490
	 R(12,15)         =         2.867875	       1.517614
	 R(12,16)         =         3.049154	       1.613543
	 R(12,30)         =         2.972578	       1.573020
	 R(12,31)         =         3.127690	       1.655102
	 R(13,17)         =         2.904404	       1.536944
	 R(13,44)         =         2.898910	       1.534037
	 R(13,82)         =         2.063237	       1.091818
	 R(13,83)         =         2.057153	       1.088598
	 R(14,17)         =         2.927449	       1.549139
	 R(15,84)         =         2.073973	       1.097499
	 R(15,144)        =         2.061803	       1.091059
	 R(16,44)         =         2.955948	       1.564220
	 R(16,60)         =         2.896128	       1.532565
	 R(17,85)         =         2.087837	       1.104836
	 R(17,86)         =         2.029929	       1.074192
	 R(18,23)         =         2.933122	       1.552141
	 R(18,87)         =         2.078875	       1.100093
	 R(18,88)         =         2.066296	       1.093437
	 R(18,89)         =         2.045972	       1.082682
	 R(19,23)         =         2.983885	       1.579004
	 R(19,24)         =         2.844344	       1.505162
	 R(19,90)         =         2.057737	       1.088908
	 R(19,91)         =         2.086671	       1.104219
	 R(20,23)         =         2.953729	       1.563046
	 R(20,25)         =         2.890021	       1.529333
	 R(20,92)         =         2.086737	       1.104254
	 R(20,93)         =         2.045408	       1.082383
	 R(21,24)         =         2.884723	       1.526530
	 R(21,25)         =         2.890422	       1.529545
	 R(21,94)         =         2.059681	       1.089936
	 R(21,95)         =         2.078456	       1.099872
	 R(22,28)         =         3.048546	       1.613221
	 R(22,53)         =         3.068211	       1.623627
	 R(22,60)         =         2.993069	       1.583864
	 R(24,28)         =         2.970927	       1.572147
	 R(24,96)         =         2.064246	       1.092352
	 R(25,53)         =         2.983688	       1.578900
	 R(25,97)         =         2.063860	       1.092148
	 R(26,31)         =         3.056430	       1.617393
	 R(26,98)         =         2.055787	       1.087876
	 R(26,99)         =         2.014598	       1.066079
	 R(27,31)         =         2.967529	       1.570349
	 R(27,32)         =         2.862509	       1.514774
	 R(27,100)        =         2.070066	       1.095432
	 R(27,101)        =         2.072419	       1.096677
	 R(28,31)         =         2.970477	       1.571909
	 R(28,33)         =         2.967771	       1.570477
	 R(29,32)         =         2.876131	       1.521983
	 R(29,33)         =         2.985720	       1.579975
	 R(29,102)        =         2.065093	       1.092800
	 R(29,103)        =         2.077206	       1.099210
	 R(30,61)         =         2.867392	       1.517359
	 R(30,104)        =         2.042782	       1.080994
	 R(30,145)        =         2.054554	       1.087223
	 R(32,105)        =         2.069773	       1.095276
	 R(32,106)        =         2.075609	       1.098365
	 R(33,61)         =         2.964222	       1.568599
	 R(33,107)        =         2.027002	       1.072643
	 R(34,39)         =         2.922194	       1.546359
	 R(34,108)        =         2.056334	       1.088165
	 R(34,109)        =         2.058250	       1.089179
	 R(34,110)        =         2.077339	       1.099280
	 R(35,39)         =         3.321534	       1.757680
	 R(35,40)         =         3.051538	       1.614804
	 R(36,39)         =         2.946043	       1.558979
	 R(36,41)         =         2.839829	       1.502773
	 R(36,111)        =         2.062959	       1.091671
	 R(36,112)        =         2.081340	       1.101398
	 R(37,40)         =         3.092423	       1.636440
	 R(37,41)         =         2.928088	       1.549478
	 R(37,56)         =         2.925532	       1.548125
	 R(37,57)         =         3.064196	       1.621503
	 R(38,42)         =         2.863260	       1.515172
	 R(38,45)         =         2.914098	       1.542074
	 R(38,113)        =         2.059275	       1.089722
	 R(38,114)        =         2.069817	       1.095300
	 R(39,42)         =         2.985876	       1.580057
	 R(40,45)         =         3.077536	       1.628562
	 R(40,60)         =         3.159385	       1.671874
	 R(41,115)        =         2.067438	       1.094041
	 R(41,146)        =         2.058486	       1.089304
	 R(42,116)        =         2.062998	       1.091692
	 R(42,117)        =         2.080695	       1.101056
	 R(43,48)         =         2.936357	       1.553853
	 R(43,118)        =         2.042934	       1.081074
	 R(43,119)        =         2.056764	       1.088393
	 R(44,48)         =         3.077605	       1.628598
	 R(44,49)         =         2.889379	       1.528993
	 R(45,48)         =         3.012147	       1.593960
	 R(45,50)         =         2.925245	       1.547973
	 R(46,49)         =         3.021072	       1.598683
	 R(46,50)         =         2.900017	       1.534623
	 R(46,64)         =         2.920793	       1.545617
	 R(46,65)         =         3.284334	       1.737995
	 R(47,51)         =         2.873523	       1.520603
	 R(47,120)        =         2.074739	       1.097905
	 R(47,121)        =         2.063099	       1.091745
	 R(47,122)        =         2.056888	       1.088458
	 R(48,51)         =         3.086820	       1.633475
	 R(49,123)        =         2.052259	       1.086009
	 R(49,147)        =         2.052078	       1.085913
	 R(50,124)        =         2.046640	       1.083035
	 R(50,148)        =         2.059853	       1.090027
	 R(51,125)        =         2.075188	       1.098142
	 R(51,126)        =         2.073709	       1.097359
	 R(52,57)         =         2.904250	       1.536863
	 R(52,127)        =         2.026476	       1.072365
	 R(52,128)        =         2.033276	       1.075963
	 R(53,57)         =         2.970715	       1.572035
	 R(53,58)         =         2.979821	       1.576853
	 R(54,57)         =         2.962575	       1.567727
	 R(54,59)         =         2.866862	       1.517078
	 R(54,129)        =         2.073096	       1.097035
	 R(54,130)        =         2.070388	       1.095602
	 R(55,58)         =         2.979768	       1.576825
	 R(55,59)         =         2.882806	       1.525515
	 R(55,131)        =         2.077470	       1.099350
	 R(55,132)        =         2.066282	       1.093429
	 R(56,62)         =         2.872293	       1.519952
	 R(56,133)        =         2.036280	       1.077553
	 R(56,149)        =         2.058815	       1.089478
	 R(58,62)         =         3.000920	       1.588019
	 R(58,134)        =         2.018441	       1.068113
	 R(59,135)        =         2.075013	       1.098050
	 R(59,136)        =         2.068974	       1.094854
	 R(60,65)         =         2.980578	       1.577254
	 R(61,65)         =         3.109275	       1.645358
	 R(61,66)         =         2.938775	       1.555133
	 R(62,65)         =         3.105013	       1.643102
	 R(62,67)         =         2.918582	       1.544447
	 R(63,66)         =         2.892092	       1.530429
	 R(63,67)         =         2.888826	       1.528701
	 R(63,137)        =         2.073580	       1.097291
	 R(63,138)        =         2.071237	       1.096052
	 R(64,139)        =         2.048656	       1.084102
	 R(64,150)        =         2.065501	       1.093016
	 R(64,151)        =         2.076398	       1.098782
	 R(66,140)        =         2.051089	       1.085389
	 R(66,141)        =         2.064875	       1.092685
	 R(67,142)        =         2.067758	       1.094210
	 R(67,143)        =         2.058523	       1.089323
	 B(1,6,2)         =         1.883574	     107.920841
	 B(1,6,3)         =         1.895687	     108.614869
	 B(1,6,9)         =         1.902097	     108.982124
	 B(2,6,3)         =         1.955807	     112.059502
	 B(2,6,9)         =         1.986425	     113.813795
	 B(2,7,4)         =         1.703098	      97.580347
	 B(2,7,14)        =         1.829106	     104.800078
	 B(2,7,26)        =         2.103470	     120.519974
	 B(3,6,9)         =         1.838160	     105.318831
	 B(3,8,4)         =         1.876214	     107.499160
	 B(3,8,35)        =         1.922727	     110.164163
	 B(3,8,52)        =         1.869138	     107.093733
	 B(4,7,14)        =         2.620636	     150.151358
	 B(4,7,26)        =         1.646273	      94.324514
	 B(4,8,35)        =         2.041194	     116.951802
	 B(4,8,52)        =         1.935769	     110.911377
	 B(4,22,28)       =         1.864994	     106.856314
	 B(4,22,53)       =         1.935290	     110.883938
	 B(4,22,60)       =         1.866568	     106.946480
	 B(4,23,18)       =         2.111535	     120.982069
	 B(4,23,19)       =         2.012271	     115.294637
	 B(4,23,20)       =         1.974184	     113.112383
	 B(5,9,6)         =         1.984675	     113.713482
	 B(5,9,75)        =         1.950472	     111.753830
	 B(5,9,76)        =         1.937770	     111.026032
	 B(5,35,8)        =         1.777919	     101.867268
	 B(5,35,39)       =         1.965921	     112.638998
	 B(5,35,40)       =         1.957822	     112.174928
	 B(5,43,48)       =         1.966865	     112.693074
	 B(5,43,118)      =         1.926596	     110.385816
	 B(5,43,119)      =         1.967634	     112.737131
	 B(6,1,68)        =         1.938727	     111.080859
	 B(6,1,69)        =         1.939795	     111.142089
	 B(6,1,70)        =         1.945893	     111.491478
	 B(6,2,7)         =         2.050872	     117.506321
	 B(6,2,71)        =         1.850439	     106.022363
	 B(6,2,72)        =         1.888150	     108.183018
	 B(6,3,8)         =         1.921928	     110.118376
	 B(6,3,73)        =         1.956852	     112.119355
	 B(6,3,74)        =         1.913031	     109.608616
	 B(6,9,75)        =         1.865167	     106.866176
	 B(6,9,76)        =         1.915271	     109.736923
	 B(7,2,71)        =         1.997135	     114.427414
	 B(7,2,72)        =         1.914529	     109.694427
	 B(7,4,8)         =         1.944818	     111.429877
	 B(7,4,22)        =         2.021279	     115.810737
	 B(7,4,23)        =         1.939884	     111.147169
	 B(7,14,10)       =         1.866187	     106.924621
	 B(7,14,11)       =         2.101455	     120.404494
	 B(7,14,17)       =         2.188108	     125.369351
	 B(7,26,31)       =         1.966296	     112.660438
	 B(7,26,98)       =         1.989330	     113.980227
	 B(7,26,99)       =         1.858863	     106.505020
	 B(8,3,73)        =         1.956704	     112.110883
	 B(8,3,74)        =         1.938057	     111.042479
	 B(8,4,22)        =         1.841937	     105.535223
	 B(8,4,23)        =         1.935600	     110.901739
	 B(8,35,39)       =         2.114658	     121.160965
	 B(8,35,40)       =         1.849632	     105.976100
	 B(8,52,57)       =         1.981037	     113.505066
	 B(8,52,127)      =         1.946247	     111.511742
	 B(8,52,128)      =         1.902851	     109.025326
	 B(9,5,35)        =         2.074494	     118.859748
	 B(9,5,43)        =         1.944974	     111.438780
	 B(10,14,11)      =         1.700401	      97.425810
	 B(10,14,17)      =         1.757154	     100.677526
	 B(11,14,17)      =         1.762657	     100.992820
	 B(11,15,12)      =         1.966423	     112.667715
	 B(11,15,84)      =         1.879986	     107.715252
	 B(11,15,144)     =         1.961899	     112.408549
	 B(12,15,84)      =         1.941222	     111.223804
	 B(12,15,144)     =         1.950788	     111.771941
	 B(12,16,44)      =         2.149145	     123.136941
	 B(12,16,60)      =         1.969532	     112.845860
	 B(12,30,61)      =         1.921840	     110.113319
	 B(12,30,104)     =         2.016642	     115.545100
	 B(12,30,145)     =         1.943994	     111.382676
	 B(12,31,26)      =         1.972359	     113.007833
	 B(12,31,27)      =         1.991832	     114.123542
	 B(12,31,28)      =         1.811526	     103.792793
	 B(13,17,14)      =         2.101344	     120.398129
	 B(13,17,85)      =         1.768840	     101.347045
	 B(13,17,86)      =         2.026890	     116.132269
	 B(13,44,16)      =         1.931982	     110.694387
	 B(13,44,48)      =         1.857530	     106.428633
	 B(13,44,49)      =         1.998320	     114.495309
	 B(14,7,26)       =         1.590269	      91.115684
	 B(14,10,77)      =         1.955640	     112.049919
	 B(14,10,78)      =         1.957422	     112.152021
	 B(14,10,79)      =         1.952959	     111.896335
	 B(14,11,15)      =         2.059809	     118.018363
	 B(14,11,80)      =         1.910924	     109.487892
	 B(14,11,81)      =         1.962594	     112.448352
	 B(14,17,85)      =         1.879579	     107.691921
	 B(14,17,86)      =         1.912661	     109.587413
	 B(15,11,80)      =         1.840846	     105.472686
	 B(15,11,81)      =         1.911237	     109.505832
	 B(15,12,16)      =         2.034077	     116.544010
	 B(15,12,30)      =         1.810134	     103.713034
	 B(15,12,31)      =         1.861281	     106.643535
	 B(16,12,30)      =         1.858296	     106.472545
	 B(16,12,31)      =         1.936337	     110.943910
	 B(16,44,48)      =         2.102103	     120.441656
	 B(16,44,49)      =         1.736420	      99.489544
	 B(16,60,22)      =         1.902383	     108.998526
	 B(16,60,40)      =         1.990796	     114.064234
	 B(16,60,65)      =         1.789804	     102.548215
	 B(17,13,44)      =         2.021260	     115.809693
	 B(17,13,82)      =         1.861729	     106.669221
	 B(17,13,83)      =         1.931430	     110.662814
	 B(18,23,19)      =         1.773426	     101.609808
	 B(18,23,20)      =         1.845112	     105.717148
	 B(19,23,20)      =         1.690907	      96.881848
	 B(19,24,21)      =         1.850201	     106.008718
	 B(19,24,28)      =         1.971522	     112.959873
	 B(19,24,96)      =         1.847740	     105.867699
	 B(20,25,21)      =         1.856775	     106.385354
	 B(20,25,53)      =         1.997225	     114.432560
	 B(20,25,97)      =         1.860798	     106.615881
	 B(21,24,28)      =         1.968676	     112.796818
	 B(21,24,96)      =         1.854373	     106.247761
	 B(21,25,53)      =         1.942299	     111.285534
	 B(21,25,97)      =         1.837052	     105.255309
	 B(22,4,23)       =         1.771582	     101.504200
	 B(22,28,24)      =         1.952826	     111.888681
	 B(22,28,31)      =         1.869486	     107.113641
	 B(22,28,33)      =         1.987051	     113.849608
	 B(22,53,25)      =         1.918994	     109.950264
	 B(22,53,57)      =         1.929926	     110.576617
	 B(22,53,58)      =         1.969648	     112.852519
	 B(22,60,40)      =         1.958042	     112.187522
	 B(22,60,65)      =         1.912057	     109.552814
	 B(23,18,87)      =         1.923206	     110.191582
	 B(23,18,88)      =         1.964683	     112.568028
	 B(23,18,89)      =         2.024942	     116.020652
	 B(23,19,24)      =         1.924005	     110.237381
	 B(23,19,90)      =         2.067837	     118.478340
	 B(23,19,91)      =         1.915861	     109.770753
	 B(23,20,25)      =         1.938632	     111.075414
	 B(23,20,92)      =         1.915441	     109.746684
	 B(23,20,93)      =         2.020276	     115.753312
	 B(24,19,90)      =         1.961694	     112.396776
	 B(24,19,91)      =         1.885458	     108.028767
	 B(24,21,25)      =         1.881888	     107.824214
	 B(24,21,94)      =         1.976597	     113.250679
	 B(24,21,95)      =         1.915947	     109.775687
	 B(24,28,31)      =         1.967682	     112.739886
	 B(24,28,33)      =         1.835325	     105.156374
	 B(25,20,92)      =         1.855967	     106.339102
	 B(25,20,93)      =         2.024453	     115.992607
	 B(25,21,94)      =         1.979817	     113.435169
	 B(25,21,95)      =         1.911902	     109.543920
	 B(25,53,57)      =         1.950646	     111.763756
	 B(25,53,58)      =         1.887943	     108.171173
	 B(26,31,27)      =         1.795173	     102.855863
	 B(26,31,28)      =         1.994646	     114.284820
	 B(27,31,28)      =         1.903451	     109.059726
	 B(27,32,29)      =         2.008698	     115.089896
	 B(27,32,105)     =         1.912025	     109.550952
	 B(27,32,106)     =         1.900180	     108.872306
	 B(28,22,53)      =         1.902166	     108.986068
	 B(28,22,60)      =         1.992212	     114.145353
	 B(28,24,96)      =         1.961551	     112.388565
	 B(28,33,29)      =         1.954128	     111.963309
	 B(28,33,61)      =         1.948140	     111.620227
	 B(28,33,107)     =         1.954834	     112.003761
	 B(29,32,105)     =         1.930233	     110.594194
	 B(29,32,106)     =         1.897317	     108.708235
	 B(29,33,61)      =         2.037001	     116.711544
	 B(29,33,107)     =         1.688793	      96.760712
	 B(30,12,31)      =         1.962323	     112.432826
	 B(30,61,33)      =         1.740596	      99.728825
	 B(30,61,65)      =         1.904230	     109.104338
	 B(30,61,66)      =         1.965347	     112.606061
	 B(31,26,98)      =         1.927059	     110.412322
	 B(31,26,99)      =         2.065786	     118.360795
	 B(31,27,32)      =         2.052115	     117.577525
	 B(31,27,100)     =         1.943040	     111.328009
	 B(31,27,101)     =         1.904830	     109.138732
	 B(31,28,33)      =         1.851159	     106.063611
	 B(32,27,100)     =         1.887313	     108.135074
	 B(32,27,101)     =         1.866980	     106.970051
	 B(32,29,33)      =         2.065398	     118.338589
	 B(32,29,102)     =         1.886143	     108.068028
	 B(32,29,103)     =         1.869639	     107.122435
	 B(33,29,102)     =         1.954969	     112.011449
	 B(33,29,103)     =         1.876712	     107.527651
	 B(33,61,65)      =         2.049241	     117.412869
	 B(33,61,66)      =         1.898444	     108.772843
	 B(34,39,35)      =         2.031566	     116.400143
	 B(34,39,36)      =         1.819545	     104.252260
	 B(34,39,42)      =         1.821026	     104.337130
	 B(35,5,43)       =         1.976679	     113.255353
	 B(35,8,52)       =         1.812172	     103.829813
	 B(35,39,36)      =         2.021618	     115.830181
	 B(35,39,42)      =         1.986517	     113.819056
	 B(35,40,37)      =         1.843172	     105.605984
	 B(35,40,45)      =         1.854243	     106.240307
	 B(35,40,60)      =         1.986192	     113.800409
	 B(36,39,42)      =         1.750400	     100.290561
	 B(36,41,37)      =         2.016033	     115.510160
	 B(36,41,115)     =         1.886880	     108.110259
	 B(36,41,146)     =         1.912936	     109.603147
	 B(37,40,45)      =         2.016343	     115.527958
	 B(37,40,60)      =         1.861195	     106.638598
	 B(37,41,115)     =         1.951098	     111.789690
	 B(37,41,146)     =         1.946060	     111.501025
	 B(37,56,62)      =         1.953339	     111.918061
	 B(37,56,133)     =         1.970860	     112.921988
	 B(37,56,149)     =         1.933222	     110.765483
	 B(37,57,52)      =         1.913939	     109.660605
	 B(37,57,53)      =         1.889265	     108.246921
	 B(37,57,54)      =         1.991982	     114.132181
	 B(38,42,39)      =         2.021300	     115.811953
	 B(38,42,116)     =         1.940011	     111.154415
	 B(38,42,117)     =         1.855182	     106.294074
	 B(38,45,40)      =         1.998824	     114.524156
	 B(38,45,48)      =         1.905106	     109.154535
	 B(38,45,50)      =         1.834263	     105.095549
	 B(39,34,108)     =         1.975399	     113.182035
	 B(39,34,109)     =         1.969396	     112.838086
	 B(39,34,110)     =         1.925320	     110.312699
	 B(39,35,40)      =         1.798732	     103.059731
	 B(39,36,41)      =         1.973700	     113.084672
	 B(39,36,111)     =         1.990765	     114.062431
	 B(39,36,112)     =         1.929352	     110.543737
	 B(39,42,116)     =         1.965785	     112.631168
	 B(39,42,117)     =         1.926239	     110.365392
	 B(40,37,41)      =         2.040266	     116.898622
	 B(40,37,56)      =         1.896197	     108.644113
	 B(40,37,57)      =         1.882470	     107.857582
	 B(40,45,48)      =         1.874045	     107.374886
	 B(40,45,50)      =         1.960611	     112.334742
	 B(40,60,65)      =         1.902622	     109.012191
	 B(41,36,111)     =         1.959344	     112.262122
	 B(41,36,112)     =         1.861572	     106.660243
	 B(41,37,56)      =         1.801767	     103.233653
	 B(41,37,57)      =         1.883282	     107.904126
	 B(42,38,45)      =         2.022544	     115.883231
	 B(42,38,113)     =         1.925571	     110.327094
	 B(42,38,114)     =         1.887932	     108.170549
	 B(43,48,44)      =         1.938102	     111.045062
	 B(43,48,45)      =         1.924726	     110.278704
	 B(43,48,51)      =         1.704718	      97.673120
	 B(44,13,82)      =         1.947475	     111.582093
	 B(44,13,83)      =         1.954311	     111.973791
	 B(44,16,60)      =         2.002651	     114.743433
	 B(44,48,45)      =         1.851968	     106.109931
	 B(44,48,51)      =         2.025415	     116.047749
	 B(44,49,46)      =         1.949806	     111.715648
	 B(44,49,123)     =         1.950124	     111.733885
	 B(44,49,147)     =         1.936648	     110.961733
	 B(45,38,113)     =         1.926177	     110.361798
	 B(45,38,114)     =         1.944898	     111.434431
	 B(45,40,60)      =         1.905883	     109.199037
	 B(45,48,51)      =         2.016435	     115.533214
	 B(45,50,46)      =         1.982959	     113.615196
	 B(45,50,124)     =         2.020152	     115.746186
	 B(45,50,148)     =         1.881479	     107.800812
	 B(46,49,123)     =         2.015223	     115.463761
	 B(46,49,147)     =         1.882411	     107.854199
	 B(46,50,124)     =         1.951771	     111.828225
	 B(46,50,148)     =         1.897268	     108.705444
	 B(46,64,139)     =         2.002758	     114.749591
	 B(46,64,150)     =         1.953183	     111.909132
	 B(46,64,151)     =         1.933254	     110.767269
	 B(46,65,60)      =         1.805599	     103.453187
	 B(46,65,61)      =         1.937770	     111.026033
	 B(46,65,62)      =         2.049504	     117.427914
	 B(47,51,48)      =         2.219325	     127.157944
	 B(47,51,125)     =         1.811683	     103.801769
	 B(47,51,126)     =         1.839554	     105.398671
	 B(48,43,118)     =         1.994927	     114.300925
	 B(48,43,119)     =         1.904318	     109.109364
	 B(48,44,49)      =         1.839504	     105.395814
	 B(48,45,50)      =         1.888283	     108.190647
	 B(48,51,125)     =         1.890856	     108.338056
	 B(48,51,126)     =         1.884930	     107.998517
	 B(49,46,50)      =         1.749604	     100.244915
	 B(49,46,64)      =         1.802531	     103.277442
	 B(49,46,65)      =         2.022363	     115.872841
	 B(50,46,64)      =         1.862721	     106.726056
	 B(50,46,65)      =         1.923816	     110.226533
	 B(51,47,120)     =         1.890033	     108.290933
	 B(51,47,121)     =         1.965448	     112.611902
	 B(51,47,122)     =         1.990051	     114.021521
	 B(52,57,53)      =         1.934244	     110.823997
	 B(52,57,54)      =         1.826502	     104.650883
	 B(53,22,60)      =         1.902476	     109.003834
	 B(53,25,97)      =         1.959236	     112.255973
	 B(53,57,54)      =         1.907898	     109.314525
	 B(53,58,55)      =         1.946278	     111.513507
	 B(53,58,62)      =         1.949543	     111.700564
	 B(53,58,134)     =         1.954423	     111.980175
	 B(54,59,55)      =         2.000584	     114.624993
	 B(54,59,135)     =         1.901928	     108.972469
	 B(54,59,136)     =         1.914805	     109.710248
	 B(55,58,62)      =         2.049106	     117.405131
	 B(55,58,134)     =         1.696219	      97.186167
	 B(55,59,135)     =         1.899434	     108.829580
	 B(55,59,136)     =         1.928290	     110.482893
	 B(56,37,57)      =         1.961259	     112.371850
	 B(56,62,58)      =         1.742975	      99.865085
	 B(56,62,65)      =         1.972897	     113.038672
	 B(56,62,67)      =         1.924271	     110.252618
	 B(57,52,127)     =         2.001309	     114.666554
	 B(57,52,128)     =         1.959956	     112.297197
	 B(57,53,58)      =         1.804374	     103.383024
	 B(57,54,59)      =         2.020541	     115.768488
	 B(57,54,129)     =         1.916300	     109.795917
	 B(57,54,130)     =         1.952660	     111.879203
	 B(58,55,59)      =         2.066969	     118.428600
	 B(58,55,131)     =         1.871011	     107.201024
	 B(58,55,132)     =         1.948184	     111.622729
	 B(58,62,65)      =         2.004948	     114.875067
	 B(58,62,67)      =         1.913950	     109.661285
	 B(59,54,129)     =         1.878166	     107.611008
	 B(59,54,130)     =         1.908240	     109.334125
	 B(59,55,131)     =         1.862870	     106.734599
	 B(59,55,132)     =         1.896477	     108.660145
	 B(60,65,61)      =         1.927998	     110.466162
	 B(60,65,62)      =         1.860117	     106.576836
	 B(61,30,104)     =         1.924582	     110.270415
	 B(61,30,145)     =         1.949656	     111.707052
	 B(61,33,107)     =         1.862798	     106.730450
	 B(61,65,62)      =         1.879184	     107.669339
	 B(61,66,63)      =         2.004033	     114.822619
	 B(61,66,140)     =         1.945553	     111.471973
	 B(61,66,141)     =         1.951215	     111.796377
	 B(62,56,133)     =         1.981559	     113.534966
	 B(62,56,149)     =         1.918844	     109.941678
	 B(62,58,134)     =         1.849994	     105.996847
	 B(62,67,63)      =         1.990587	     114.052228
	 B(62,67,142)     =         1.947503	     111.583680
	 B(62,67,143)     =         1.918590	     109.927129
	 B(63,66,140)     =         1.895410	     108.598981
	 B(63,66,141)     =         1.874843	     107.420564
	 B(63,67,142)     =         1.880936	     107.769717
	 B(63,67,143)     =         1.927164	     110.418382
	 B(64,46,65)      =         2.069783	     118.589842
	 B(65,61,66)      =         1.903245	     109.047899
	 B(65,62,67)      =         1.900108	     108.868157
	 B(66,63,67)      =         2.014845	     115.442116
	 B(66,63,137)     =         1.896496	     108.661240
	 B(66,63,138)     =         1.905026	     109.149973
	 B(67,63,137)     =         1.895971	     108.631123
	 B(67,63,138)     =         1.908492	     109.348540
	 B(68,1,69)       =         1.883127	     107.895206
	 B(68,1,70)       =         1.877153	     107.552970
	 B(69,1,70)       =         1.876165	     107.496317
	 B(71,2,72)       =         1.733894	      99.344809
	 B(73,3,74)       =         1.772657	     101.565769
	 B(75,9,76)       =         1.800335	     103.151595
	 B(77,10,78)      =         1.841406	     105.504805
	 B(77,10,79)      =         1.928350	     110.486323
	 B(78,10,79)      =         1.820544	     104.309475
	 B(80,11,81)      =         1.748446	     100.178576
	 B(82,13,83)      =         1.722587	      98.696962
	 B(84,15,144)     =         1.750961	     100.322656
	 B(85,17,86)      =         1.718266	      98.449410
	 B(87,18,88)      =         1.807549	     103.564955
	 B(87,18,89)      =         1.807815	     103.580178
	 B(88,18,89)      =         1.916656	     109.816291
	 B(90,19,91)      =         1.688141	      96.723337
	 B(92,20,93)      =         1.681631	      96.350353
	 B(94,21,95)      =         1.795820	     102.892922
	 B(98,26,99)      =         1.634983	      93.677650
	 B(100,27,101)    =         1.789993	     102.559034
	 B(102,29,103)    =         1.788796	     102.490461
	 B(104,30,145)    =         1.698122	      97.295212
	 B(105,32,106)    =         1.803882	     103.354798
	 B(108,34,109)    =         1.928269	     110.481695
	 B(108,34,110)    =         1.830096	     104.856773
	 B(109,34,110)    =         1.824118	     104.514248
	 B(111,36,112)    =         1.729221	      99.077055
	 B(113,38,114)    =         1.734999	      99.408128
	 B(115,41,146)    =         1.728689	      99.046586
	 B(116,42,117)    =         1.729411	      99.087934
	 B(118,43,119)    =         1.686323	      96.619168
	 B(120,47,121)    =         1.834040	     105.082775
	 B(120,47,122)    =         1.836417	     105.218919
	 B(121,47,122)    =         1.935599	     110.901673
	 B(123,49,147)    =         1.714567	      98.237444
	 B(124,50,148)    =         1.704330	      97.650906
	 B(125,51,126)    =         1.766751	     101.227379
	 B(127,52,128)    =         1.644186	      94.204929
	 B(129,54,130)    =         1.769875	     101.406369
	 B(131,55,132)    =         1.796646	     102.940227
	 B(133,56,149)    =         1.689392	      96.795013
	 B(135,59,136)    =         1.808712	     103.631561
	 B(137,63,138)    =         1.834393	     105.102951
	 B(139,64,150)    =         1.909604	     109.412229
	 B(139,64,151)    =         1.833666	     105.061334
	 B(140,66,141)    =         1.777799	     101.860389
	 B(142,67,143)    =         1.788239	     102.458549
	 B(150,64,151)    =         1.818842	     104.211972
	 D(1,6,2,7)       =         3.016055	     172.807204
	 D(1,6,2,71)      =         0.757744	      43.415506
	 D(1,6,2,72)      =        -1.088668	     -62.376095
	 D(1,6,3,8)       =        -3.094608	    -177.307970
	 D(1,6,3,73)      =         0.997095	      57.129332
	 D(1,6,3,74)      =        -0.957607	     -54.866812
	 D(1,6,9,5)       =         2.967500	     170.025232
	 D(1,6,9,75)      =        -1.155127	     -66.183873
	 D(1,6,9,76)      =         0.785405	      45.000395
	 D(2,6,1,68)      =         1.009575	      57.844361
	 D(2,6,1,69)      =        -1.087310	     -62.298301
	 D(2,6,1,70)      =         3.102990	     177.788223
	 D(2,6,3,8)       =         1.109326	      63.559671
	 D(2,6,3,73)      =        -1.082157	     -62.003028
	 D(2,6,3,74)      =        -3.036858	    -173.999172
	 D(2,6,9,5)       =        -1.212618	     -69.477910
	 D(2,6,9,75)      =         0.947940	      54.312985
	 D(2,6,9,76)      =         2.888472	     165.497253
	 D(2,7,4,8)       =        -0.939300	     -53.817914
	 D(2,7,4,22)      =        -3.044628	    -174.444356
	 D(2,7,4,23)      =         1.229218	      70.428997
	 D(2,7,14,10)     =        -0.554908	     -31.793863
	 D(2,7,14,11)     =        -2.467515	    -141.378216
	 D(2,7,14,17)     =         1.486586	      85.175124
	 D(2,7,26,31)     =        -2.869724	    -164.423081
	 D(2,7,26,98)     =         1.199959	      68.752602
	 D(2,7,26,99)     =        -0.577323	     -33.078196
	 D(3,6,1,68)      =        -1.114450	     -63.853287
	 D(3,6,1,69)      =         3.071850	     176.004052
	 D(3,6,1,70)      =         0.978965	      56.090575
	 D(3,6,2,7)       =        -1.180764	     -67.652793
	 D(3,6,2,71)      =         2.844110	     162.955509
	 D(3,6,2,72)      =         0.997698	      57.163908
	 D(3,6,9,5)       =         0.936400	      53.651758
	 D(3,6,9,75)      =         3.096959	     177.442653
	 D(3,6,9,76)      =        -1.245695	     -71.373079
	 D(3,8,4,7)       =         1.036323	      59.376931
	 D(3,8,4,22)      =        -3.039320	    -174.140236
	 D(3,8,4,23)      =        -1.134607	     -65.008183
	 D(3,8,35,5)      =        -1.013770	     -58.084724
	 D(3,8,35,39)     =         1.184026	      67.839706
	 D(3,8,35,40)     =        -3.064065	    -175.557969
	 D(3,8,52,57)     =         3.082192	     176.596576
	 D(3,8,52,127)    =         0.789785	      45.251332
	 D(3,8,52,128)    =        -1.002087	     -57.415337
	 D(4,7,2,6)       =         1.002985	      57.466835
	 D(4,7,2,71)      =        -3.092775	    -177.202970
	 D(4,7,2,72)      =        -1.162276	     -66.593511
	 D(4,7,14,10)     =        -2.950746	    -169.065297
	 D(4,7,14,11)     =         1.419831	      81.350350
	 D(4,7,14,17)     =        -0.909252	     -52.096310
	 D(4,7,26,31)     =        -1.099458	     -62.994327
	 D(4,7,26,98)     =         2.970225	     170.181356
	 D(4,7,26,99)     =         1.192942	      68.350558
	 D(4,8,3,6)       =        -1.067237	     -61.148171
	 D(4,8,3,73)      =         1.124330	      64.419342
	 D(4,8,3,74)      =         3.093773	     177.260142
	 D(4,8,35,5)      =         1.134696	      65.013318
	 D(4,8,35,39)     =        -2.950693	    -169.062252
	 D(4,8,35,40)     =        -0.915598	     -52.459926
	 D(4,8,52,57)     =         1.039841	      59.578524
	 D(4,8,52,127)    =        -1.252566	     -71.766719
	 D(4,8,52,128)    =        -3.044437	    -174.433389
	 D(4,22,28,24)    =        -1.229392	     -70.438961
	 D(4,22,28,31)    =         0.935288	      53.588038
	 D(4,22,28,33)    =         2.975845	     170.503363
	 D(4,22,53,25)    =         1.141422	      65.398650
	 D(4,22,53,57)    =        -1.020867	     -58.491366
	 D(4,22,53,58)    =        -3.032287	    -173.737259
	 D(4,22,60,16)    =        -1.104436	     -63.279511
	 D(4,22,60,40)    =         1.117580	      64.032642
	 D(4,22,60,65)    =        -3.050067	    -174.755980
	 D(4,23,18,87)    =        -3.008102	    -172.351536
	 D(4,23,18,88)    =         1.267012	      72.594412
	 D(4,23,18,89)    =        -0.961635	     -55.097645
	 D(4,23,19,24)    =         0.873064	      50.022910
	 D(4,23,19,90)    =        -1.421189	     -81.428115
	 D(4,23,19,91)    =         2.947979	     168.906774
	 D(4,23,20,25)    =        -0.932191	     -53.410628
	 D(4,23,20,92)    =        -2.979479	    -170.711561
	 D(4,23,20,93)    =         1.424388	      81.611404
	 D(5,35,8,52)     =        -3.010176	    -172.470381
	 D(5,35,39,34)    =         0.991835	      56.827977
	 D(5,35,39,36)    =         3.139809	     179.897804
	 D(5,35,39,42)    =        -1.127378	     -64.594017
	 D(5,35,40,37)    =        -3.124367	    -179.013044
	 D(5,35,40,45)    =         1.008761	      57.797744
	 D(5,35,40,60)    =        -1.088906	     -62.389742
	 D(5,43,48,44)    =         1.036432	      59.383159
	 D(5,43,48,45)    =        -1.011375	     -57.947510
	 D(5,43,48,51)    =        -3.121369	    -178.841290
	 D(6,2,7,14)      =        -1.790960	    -102.614441
	 D(6,2,7,26)      =         2.741321	     157.066141
	 D(6,3,8,35)      =         1.174906	      67.317168
	 D(6,3,8,52)      =         3.134788	     179.610119
	 D(6,9,5,35)      =        -0.989856	     -56.714572
	 D(6,9,5,43)      =         2.946098	     168.798965
	 D(7,2,6,9)       =         0.902618	      51.716180
	 D(7,4,8,35)      =        -1.135862	     -65.080120
	 D(7,4,8,52)      =         3.074329	     176.146062
	 D(7,4,22,28)     =        -1.067908	     -61.186602
	 D(7,4,22,53)     =        -3.138733	    -179.836128
	 D(7,4,22,60)     =         1.072308	      61.438717
	 D(7,4,23,18)     =        -0.935933	     -53.625003
	 D(7,4,23,19)     =         1.209326	      69.289274
	 D(7,4,23,20)     =         3.133202	     179.519237
	 D(7,14,10,77)    =        -0.786160	     -45.043668
	 D(7,14,10,78)    =        -2.853397	    -163.487590
	 D(7,14,10,79)    =         1.390845	      79.689531
	 D(7,14,11,15)    =        -1.099798	     -63.013768
	 D(7,14,11,80)    =         3.078721	     176.397711
	 D(7,14,11,81)    =         1.151385	      65.969498
	 D(7,14,17,13)    =         1.484533	      85.057460
	 D(7,14,17,85)    =        -2.787162	    -159.692639
	 D(7,14,17,86)    =        -0.935476	     -53.598849
	 D(7,26,31,12)    =        -0.786427	     -45.058973
	 D(7,26,31,27)    =        -2.942410	    -168.587654
	 D(7,26,31,28)    =         1.280192	      73.349578
	 D(8,3,6,9)       =        -1.059131	     -60.683745
	 D(8,4,7,14)      =         1.479078	      84.744934
	 D(8,4,7,26)      =        -3.061451	    -175.408248
	 D(8,4,22,28)     =         3.055290	     175.055214
	 D(8,4,22,53)     =         0.984465	      56.405688
	 D(8,4,22,60)     =        -1.087680	     -62.319467
	 D(8,4,23,18)     =         1.237798	      70.920599
	 D(8,4,23,19)     =        -2.900129	    -166.165123
	 D(8,4,23,20)     =        -0.976253	     -55.935161
	 D(8,35,5,9)      =         0.947705	      54.299485
	 D(8,35,5,43)     =        -3.001699	    -171.984686
	 D(8,35,39,34)    =        -1.117140	     -64.007421
	 D(8,35,39,36)    =         1.030833	      59.062406
	 D(8,35,39,42)    =         3.046831	     174.570585
	 D(8,35,40,37)    =        -1.198475	     -68.667540
	 D(8,35,40,45)    =         2.934653	     168.143247
	 D(8,35,40,60)    =         0.836986	      47.955762
	 D(8,52,57,37)    =         1.061248	      60.805039
	 D(8,52,57,53)    =        -1.023500	     -58.642214
	 D(8,52,57,54)    =        -3.078151	    -176.365068
	 D(9,5,35,39)     =        -1.344611	     -77.040537
	 D(9,5,35,40)     =         2.918437	     167.214116
	 D(9,5,43,48)     =        -2.877938	    -164.893693
	 D(9,5,43,118)    =         1.151271	      65.962987
	 D(9,5,43,119)    =        -0.712776	     -40.839054
	 D(9,6,1,68)      =        -3.108431	    -178.099992
	 D(9,6,1,69)      =         1.077869	      61.757346
	 D(9,6,1,70)      =        -1.015016	     -58.156130
	 D(9,6,2,71)      =        -1.355694	     -77.675518
	 D(9,6,2,72)      =         3.081080	     176.532881
	 D(9,6,3,73)      =         3.032572	     173.753556
	 D(9,6,3,74)      =         1.077870	      61.757412
	 D(10,14,7,26)    =         1.575091	      90.246092
	 D(10,14,11,15)   =        -3.100592	    -177.650826
	 D(10,14,11,80)   =         1.077927	      61.760653
	 D(10,14,11,81)   =        -0.849409	     -48.667559
	 D(10,14,17,13)   =        -2.707564	    -155.132001
	 D(10,14,17,85)   =        -0.696074	     -39.882100
	 D(10,14,17,86)   =         1.155612	      66.211689
	 D(11,14,7,26)    =        -0.337516	     -19.338261
	 D(11,14,10,77)   =         1.394979	      79.926385
	 D(11,14,10,78)   =        -0.672258	     -38.517538
	 D(11,14,10,79)   =        -2.711202	    -155.340416
	 D(11,14,17,13)   =        -0.965326	     -55.309126
	 D(11,14,17,85)   =         1.046164	      59.940774
	 D(11,14,17,86)   =         2.897850	     166.034564
	 D(11,15,12,16)   =        -1.137254	     -65.159849
	 D(11,15,12,30)   =         3.110426	     178.214300
	 D(11,15,12,31)   =         1.035646	      59.338134
	 D(12,15,11,14)   =         0.504102	      28.882919
	 D(12,15,11,80)   =         2.644630	     151.526153
	 D(12,15,11,81)   =        -1.770833	    -101.461233
	 D(12,16,44,13)   =         0.953270	      54.618360
	 D(12,16,44,48)   =         3.133821	     179.554734
	 D(12,16,44,49)   =        -1.155630	     -66.212721
	 D(12,16,60,22)   =        -0.878720	     -50.346933
	 D(12,16,60,40)   =        -3.082020	    -176.586713
	 D(12,16,60,65)   =         1.146842	      65.709210
	 D(12,30,61,33)   =         1.133072	      64.920236
	 D(12,30,61,65)   =        -1.024559	     -58.702921
	 D(12,30,61,66)   =        -3.140271	    -179.924289
	 D(12,31,26,98)   =         1.459880	      83.644971
	 D(12,31,26,99)   =        -2.970107	    -170.174608
	 D(12,31,27,32)   =         1.096352	      62.816325
	 D(12,31,27,100)  =        -1.094276	     -62.697391
	 D(12,31,27,101)  =        -3.057670	    -175.191577
	 D(12,31,28,22)   =         1.121025	      64.229998
	 D(12,31,28,24)   =        -3.006601	    -172.265542
	 D(12,31,28,33)   =        -1.007097	     -57.702427
	 D(13,44,16,60)   =        -2.812592	    -161.149628
	 D(13,44,48,43)   =         0.990414	      56.746530
	 D(13,44,48,45)   =         3.082115	     176.592200
	 D(13,44,48,51)   =        -0.935071	     -53.575624
	 D(13,44,49,46)   =        -3.034580	    -173.868600
	 D(13,44,49,123)  =        -0.747004	     -42.800175
	 D(13,44,49,147)  =         1.147292	      65.735005
	 D(14,7,2,71)     =         0.396465	      22.715755
	 D(14,7,2,72)     =         2.326964	     133.325214
	 D(14,7,4,22)     =        -0.626250	     -35.881508
	 D(14,7,4,23)     =        -2.635590	    -151.008155
	 D(14,7,26,31)    =         1.529504	      87.634100
	 D(14,7,26,98)    =        -0.683998	     -39.190217
	 D(14,7,26,99)    =        -2.461281	    -141.021015
	 D(14,11,15,84)   =         2.651593	     151.925107
	 D(14,11,15,144)  =        -1.718986	     -98.490617
	 D(14,17,13,44)   =        -1.019816	     -58.431177
	 D(14,17,13,82)   =         3.084449	     176.725882
	 D(14,17,13,83)   =         1.228175	      70.369228
	 D(15,11,14,17)   =         1.394431	      79.895011
	 D(15,12,16,44)   =        -0.615041	     -35.239271
	 D(15,12,16,60)   =         3.140415	     179.932506
	 D(15,12,30,61)   =        -3.103953	    -177.843411
	 D(15,12,30,104)  =         0.984845	      56.427446
	 D(15,12,30,145)  =        -0.931040	     -53.344679
	 D(15,12,31,26)   =        -1.164582	     -66.725645
	 D(15,12,31,27)   =         0.878606	      50.340436
	 D(15,12,31,28)   =         2.948189	     168.918762
	 D(16,12,15,84)   =         3.033022	     173.779387
	 D(16,12,15,144)  =         1.091702	      62.549901
	 D(16,12,30,61)   =         1.023868	      58.663331
	 D(16,12,30,104)  =        -1.170519	     -67.065812
	 D(16,12,30,145)  =        -3.086404	    -176.837937
	 D(16,12,31,26)   =         1.067129	      61.141978
	 D(16,12,31,27)   =         3.110317	     178.208058
	 D(16,12,31,28)   =        -1.103286	     -63.213616
	 D(16,44,13,17)   =         0.825385	      47.291060
	 D(16,44,13,82)   =         2.959459	     169.564520
	 D(16,44,13,83)   =        -1.411372	     -80.865647
	 D(16,44,48,43)   =        -1.224654	     -70.167506
	 D(16,44,48,45)   =         0.867048	      49.678163
	 D(16,44,48,51)   =         3.133046	     179.510340
	 D(16,44,49,46)   =        -0.974624	     -55.841869
	 D(16,44,49,123)  =         1.312951	      75.226556
	 D(16,44,49,147)  =        -3.075938	    -176.238264
	 D(16,60,22,28)   =         0.954283	      54.676408
	 D(16,60,22,53)   =         3.085414	     176.781175
	 D(16,60,40,35)   =         1.162364	      66.598552
	 D(16,60,40,37)   =        -3.095892	    -177.381520
	 D(16,60,40,45)   =        -0.905953	     -51.907259
	 D(16,60,65,46)   =         0.988198	      56.619597
	 D(16,60,65,61)   =        -1.086730	     -62.265064
	 D(16,60,65,62)   =        -3.123303	    -178.952082
	 D(17,13,44,48)   =        -1.487793	     -85.244238
	 D(17,13,44,49)   =         2.770658	     158.747036
	 D(17,14,7,26)    =        -2.666600	    -152.784921
	 D(17,14,10,77)   =        -3.095328	    -177.349242
	 D(17,14,10,78)   =         1.120621	      64.206836
	 D(17,14,10,79)   =        -0.918323	     -52.616043
	 D(17,14,11,80)   =        -0.710236	     -40.693509
	 D(17,14,11,81)   =        -2.637572	    -151.121722
	 D(18,23,4,22)    =        -3.095257	    -177.345149
	 D(18,23,19,24)   =        -3.093821	    -177.262867
	 D(18,23,19,90)   =         0.895111	      51.286108
	 D(18,23,19,91)   =        -1.018906	     -58.379004
	 D(18,23,20,25)   =         3.002648	     172.039048
	 D(18,23,20,92)   =         0.955360	      54.738116
	 D(18,23,20,93)   =        -0.923958	     -52.938920
	 D(19,23,4,22)    =        -0.949998	     -54.430871
	 D(19,23,18,87)   =         1.019968	      58.439867
	 D(19,23,18,88)   =        -0.988104	     -56.614185
	 D(19,23,18,89)   =         3.066435	     175.693758
	 D(19,23,20,25)   =         1.184803	      67.884197
	 D(19,23,20,92)   =        -0.862485	     -49.416735
	 D(19,23,20,93)   =        -2.741804	    -157.093771
	 D(19,24,21,25)   =        -1.099998	     -63.025271
	 D(19,24,21,94)   =         2.977815	     170.616213
	 D(19,24,21,95)   =         0.981767	      56.251125
	 D(19,24,28,22)   =         1.128661	      64.667504
	 D(19,24,28,31)   =        -0.979938	     -56.146317
	 D(19,24,28,33)   =        -2.989000	    -171.257083
	 D(20,23,4,22)    =         0.973878	      55.799091
	 D(20,23,18,87)   =        -0.736790	     -42.214952
	 D(20,23,18,88)   =        -2.744862	    -157.269005
	 D(20,23,18,89)   =         1.309677	      75.038938
	 D(20,23,19,24)   =        -1.214819	     -69.603982
	 D(20,23,19,90)   =         2.774113	     158.944993
	 D(20,23,19,91)   =         0.860096	      49.279882
	 D(20,25,21,24)   =         1.067743	      61.177162
	 D(20,25,21,94)   =        -3.011962	    -172.572691
	 D(20,25,21,95)   =        -1.016593	     -58.246482
	 D(20,25,53,22)   =        -1.039599	     -59.564639
	 D(20,25,53,57)   =         1.110586	      63.631892
	 D(20,25,53,58)   =         3.085650	     176.794741
	 D(21,24,19,23)   =         1.240864	      71.096254
	 D(21,24,19,90)   =        -2.693897	    -154.348921
	 D(21,24,19,91)   =        -0.852516	     -48.845558
	 D(21,24,28,22)   =        -0.969142	     -55.527733
	 D(21,24,28,31)   =        -3.077741	    -176.341554
	 D(21,24,28,33)   =         1.196383	      68.547679
	 D(21,25,20,23)   =        -1.189327	     -68.143403
	 D(21,25,20,92)   =         0.893902	      51.216797
	 D(21,25,20,93)   =         2.739308	     156.950767
	 D(21,25,53,22)   =         1.065826	      61.067308
	 D(21,25,53,57)   =        -3.067175	    -175.736161
	 D(21,25,53,58)   =        -1.092110	     -62.573312
	 D(22,4,7,26)     =         1.116405	      63.965310
	 D(22,4,8,35)     =         1.071680	      61.402713
	 D(22,4,8,52)     =        -1.001315	     -57.371105
[...]
    Convergence Criteria    1.00e-06 *    3.00e-04 *             o    1.20e-03 *             o
  ---------------------------------------------------------------------------------------------
      3   -3037.84466685   -1.38e-01      2.19e-02      3.08e-03 o    1.89e-01      2.28e-02 o  ~
  ---------------------------------------------------------------------------------------------

	Writing optimization data to binary file.
	Structure for next step:
	Cartesian Geometry (in Angstrom)
	    C    -3.0682148214  -3.6759274867  -3.0167421169
	    C    -3.1627751298  -1.9262687623  -1.2049925502
	    C    -1.4013113317  -1.7757170459  -3.0466726497
	    C    -1.4710110578   0.0276831398  -1.1821189769
	    N    -0.1582444242  -2.7227524607  -0.6716876821
	    C    -2.2060771012  -2.7271940582  -2.1446816274
	    C    -2.4937441685  -1.0198914971  -0.1123663755
	    C    -0.4996676597  -0.8592355821  -2.1890305132
	    C    -1.1487372472  -3.5687553724  -1.3848041823
	    C    -4.0006464525  -2.7867046685   0.8868219397
	    C    -3.1943236136  -1.3328021372   2.6665267741
	    C    -1.3362722040   0.3380089467   2.3238187451
	    C    -0.5675079580  -2.7141346283   2.8185774384
	    C    -2.7222244707  -2.0163307641   1.3429983401
	    C    -2.2160107542  -0.3825685332   3.3517290795
	    C    -0.3490254992  -0.5681909128   1.4782801937
	    C    -1.7548717412  -3.1339579899   1.8990449255
	    C    -3.6329040868   0.4543951788  -3.0399660899
	    C    -3.2742609265   2.1317905351  -1.2960122635
	    C    -1.6528099363   1.9839388869  -3.0737235108
	    C    -1.4309916128   3.7990887508  -1.3706571090
	    C    -0.5227716196   1.0720056273  -0.4152903591
	    C    -2.4979692290   1.0447141636  -2.1284688324
	    C    -2.3156279768   2.9516503635  -0.4215198473
	    C    -0.6283820881   2.8440264885  -2.2880005369
	    C    -3.2960161495   0.1626333066   0.5177280463
	    C    -3.3644165104   2.0165561021   2.1501137923
	    C    -1.4498619226   2.0220192100   0.4628425826
	    C    -1.5324992734   3.8372319433   2.3261055896
	    C    -0.4457403448   1.3225724294   3.1574877435
	    C    -2.3554398450   1.1209362452   1.3628297789
	    C    -2.7827663961   3.1895105279   2.9665338083
	    C    -0.6286161649   2.9553887772   1.4114997696
	    C     1.3151893729  -3.6093676025  -3.3663560580
	    C     0.6219194960  -1.7329535470  -1.4469744830
	    C     2.6741317755  -1.5558950110  -3.2354022965
	    C     2.2494444481   0.2827455119  -1.4490856947
	    C     3.4188187232  -2.4333642811  -0.2862304617
	    C     1.7958779010  -2.5071440815  -2.3676066153
	    C     1.4312592839  -0.7134321524  -0.4812698913
	    C     3.2475882550  -0.3825316012  -2.4289911140
	    C     2.8672825747  -3.2402854441  -1.4776249674
	    C     0.6542583582  -3.4904929017   0.2641800325
	    C     0.4267993814  -1.7176624817   2.1620006115
	    C     2.3569830054  -1.5949486214   0.4697924433
	    C     2.2094809431   0.1864845549   2.3467085722
	    C     3.1055086192  -3.5093829312   3.3301382818
	    C     1.4250840843  -2.5834637477   1.2725184013
	    C     1.3327357778  -0.8868895311   3.1278863719
	    C     3.1303397853  -0.7146685554   1.4879371817
	    C     2.2017843528  -3.7057011155   2.0862750432
	    C     0.3030322282   0.0663439339  -3.1198656800
	    C     0.3205487500   1.9669347932  -1.4288685497
	    C     1.8765717162   1.9472251441  -3.4439909011
	    C     2.1675320201   3.7786205688  -1.6457968173
	    C     3.1083665988   1.2546711978  -0.5775645086
	    C     1.2006229299   1.0691995638  -2.3519166386
	    C     1.3310473544   2.8977342511  -0.6701035667
	    C     2.7340803952   3.1194191291  -2.9272670815
	    C     0.4757668763   0.2287741715   0.4551050786
	    C     0.4410844045   2.1723575045   2.2247671653
	    C     2.2297379239   2.1120128507   0.3561382646
	    C     2.2414583640   4.0327230647   2.0877112316
	    C     3.1010883102   0.8163026525   3.4622000966
	    C     1.3709536402   1.1956758413   1.3581278213
	    C     1.2851029432   3.2260782938   3.0013504474
	    C     3.0794505827   3.1522240776   1.1334426578
	    H    -3.8040815427  -3.1142704097  -3.5847115010
	    H    -3.5941395222  -4.3953160665  -2.3961848753
	    H    -2.4451600965  -4.2233498138  -3.7172820081
	    H    -3.8593923091  -2.6357174665  -0.7720055459
	    H    -3.7909719782  -1.3043502550  -1.8439463183
	    H    -2.0560662112  -1.1783305880  -3.6783750959
	    H    -0.7909299632  -2.3613878750  -3.7313047848
	    H    -1.6425611098  -4.1969142672  -0.6417297302
	    H    -0.6709479013  -4.2589475620  -2.0908605380
	    H    -4.7143152413  -2.1189542755   0.4166206627
	    H    -4.4918392217  -3.2435422009   1.7402350266
	    H    -3.7549571012  -3.5838376419   0.1913915708
	    H    -3.4041524590  -2.1444994945   3.3562753453
	    H    -4.1583888972  -0.8442345683   2.5324732873
	    H    -0.0364238844  -3.6242647514   3.0931640228
	    H    -0.9507479570  -2.3338088765   3.7652916740
	    H    -2.7773022597   0.3686245338   3.9020918863
	    H    -2.3864184716  -3.7699089997   2.5159420028
	    H    -1.4175609724  -3.8043699840   1.1084246045
	    H    -4.0414518546   1.2570389496  -3.6436885617
	    H    -4.4461488532   0.0479778706  -2.4458151686
	    H    -3.2720617515  -0.3133894353  -3.7193918896
	    H    -4.1210861999   1.7369826170  -0.7357940074
	    H    -3.7343209318   2.8133936167  -2.0045669067
	    H    -2.3467016121   2.6822602248  -3.5325671670
	    H    -1.2180921685   1.4650813896  -3.9279679545
	    H    -0.7711330556   4.4643464733  -0.8163846508
	    H    -2.0667343189   4.4396743219  -1.9781346340
	    H    -2.8948869487   3.6252696989   0.2093395949
	    H    -0.0514392041   3.4453749648  -2.9905507590
	    H    -4.1089480231  -0.1769584504   1.1512549243
	    H    -3.8293985131   0.7341029452  -0.2427663298
	    H    -3.9626712412   1.3877086806   2.8072953877
	    H    -4.0686871362   2.4249949757   1.4276251999
	    H    -0.9196381771   4.2852025477   3.1062893773
	    H    -1.8697856498   4.6748914132   1.7178667211
	    H     0.1423588466   0.7806241184   3.8973021045
	    H    -2.5575920985   2.8557125734   3.9780331742
	    H    -3.5498049782   3.9533580338   3.0754135928
	    H    -0.1195131794   3.7131418025   0.8131462034
	    H     0.6362218795  -3.2068014496  -4.1126323582
	    H     0.8297792140  -4.4343809382  -2.8529312070
	    H     2.1778568347  -4.0106947597  -3.8877663905
	    H     2.1572597504  -1.2166186515  -4.1321546400
	    H     3.5128689729  -2.1313321143  -3.6154366073
	    H     4.2313604189  -1.7938767708  -0.6266792346
	    H     3.8892855805  -3.1141372566   0.4205664722
	    H     3.6101490279   0.3811088857  -3.1141101424
	    H     2.5094105484  -4.2156071396  -1.1507331299
	    H     3.7113884504  -3.4736261294  -2.1197730828
	    H     1.3669897313  -4.1430765248  -0.2557355071
	    H     0.0154478967  -4.1809756930   0.8145901778
	    H     3.5228309965  -4.4777346492   3.5908997022
	    H     2.5432777165  -3.1526035767   4.1885145323
	    H     3.9341470256  -2.8328839327   3.1402499899
	    H     0.7572914011  -0.4500084856   3.9433238637
	    H     3.9421674712  -0.1591810342   1.0206258717
	    H     1.4490028179  -4.4315676134   2.3879441854
	    H     2.8064695497  -4.2355260212   1.3524106532
	    H    -0.3407047087   0.5856453459  -3.8279966048
	    H     0.9202428010  -0.5543420321  -3.7669639466
	    H     1.0940776045   2.3516330590  -4.0832799573
	    H     2.4751419468   1.3154793823  -4.0984328368
	    H     1.5196211828   4.5958688793  -1.9587861050
	    H     2.9768697852   4.2534646191  -1.0938570756
	    H     3.8864236091   0.7105283869  -0.0438175239
	    H     0.7740600444   3.6504551513  -0.1081341992
	    H     2.7983015518   3.8775266294  -3.7050751634
	    H     3.7557650758   2.7830309469  -2.7589905671
	    H     2.9157274219   4.6166863059   2.7123439702
	    H     1.6644771732   4.7503104752   1.5064906770
	    H     3.7142002889   1.6312456699   3.0873598291
	    H     1.8434880837   2.7517986477   3.8074317623
	    H     0.6153749425   3.9297278155   3.4928442074
	    H     3.5996846448   3.7977030828   0.4276905049
	    H     3.8628893192   2.6423777018   1.6928081018
	    H    -1.6250604452  -0.8962580489   4.1077215671
	    H    -1.0855579653   1.9714023465   3.7520446142
	    H     4.1406725313  -0.7126749591  -1.9011727765
	    H     2.0381883134  -1.5478930438   3.6268535804
	    H     3.6414219143  -1.3937025424   2.1656717565
	    H     3.6636324403   1.9179312944  -1.2380227450
	    H     2.4964814035   1.1838987213   4.2859608833
	    H     3.7661995666   0.0572521795   3.8595817758
			--------------------------
			 OPTKING Finished Execution 
			--------------------------

    Structure for next step:
    Molecular point group: c1
    Full point group: C1

    Geometry (in Angstrom), charge = 1, multiplicity = 1:

    C           -3.068057252388    -3.675123211156    -3.017413520709
    C           -3.162617560773    -1.925464486735    -1.205663954050
    C           -1.401153762649    -1.774912770310    -3.047344053483
    C           -1.470853488774     0.028487415307    -1.182790380740
    N           -0.158086855174    -2.721948185114    -0.672359085946
    C           -2.205919532208    -2.726389782619    -2.145353031276
    C           -2.493586599441    -1.019087221586    -0.113037779331
    C           -0.499510090695    -0.858431306563    -2.189701916995
    C           -1.148579678167    -3.567951096832    -1.385475586142
    C           -4.000488883475    -2.785900392987     0.886150535895
    C           -3.194166044549    -1.331997861671     2.665855370273
    C           -1.336114635020     0.338813222244     2.323147341235
    C           -0.567350389021    -2.713330352721     2.817906034580
    C           -2.722066901686    -2.015526488518     1.342326936250
    C           -2.215853185201    -0.381764257673     3.351057675659
    C           -0.348867930132    -0.567386637244     1.477608789863
    C           -1.754714172171    -3.133153714330     1.898373521679
    C           -3.632746517800     0.455199454348    -3.040637493689
    C           -3.274103357513     2.132594810646    -1.296683667366
    C           -1.652652367304     1.984743162391    -3.074394914632
    C           -1.430834043784     3.799893026307    -1.371328512822
    C           -0.522614050589     1.072809902802    -0.415961762931
    C           -2.497811659978     1.045518439153    -2.129140236206
    C           -2.315470407824     2.952454639079    -0.422191251133
    C           -0.628224519088     2.844830764054    -2.288671940768
    C           -3.295858580445     0.163437582112     0.517056642486
    C           -3.364258941355     2.017360377624     2.149442388460
    C           -1.449704353581     2.022823485569     0.462171178743
    C           -1.532341704337     3.838036218793     2.325434185810
    C           -0.445582775748     1.323376704945     3.156816339678
    C           -2.355282275989     1.121740520720     1.362158375026
    C           -2.782608827050     3.190314803486     2.965862404432
    C           -0.628458595858     2.956193052758     1.410828365801
    C            1.315346941893    -3.608563326969    -3.367027461789
    C            0.622077065018    -1.732149271412    -1.447645886880
    C            2.674289344473    -1.555090735499    -3.236073700299
    C            2.249602017117     0.283549787485    -1.449757098496
    C            3.418976292176    -2.432560005525    -0.286901865494
    C            1.796035470045    -2.506339805965    -2.368278019168
    C            1.431416852925    -0.712627876826    -0.481941295159
    C            3.247745824059    -0.381727325691    -2.429662517841
    C            2.867440143733    -3.239481168526    -1.478296371182
    C            0.654415927224    -3.489688626162     0.263508628644
    C            0.426956950373    -1.716858206123     2.161329207714
    C            2.357140574449    -1.594144345819     0.469121039419
    C            2.209638512153     0.187288830449     2.346037168387
    C            3.105666188173    -3.508578655628     3.329466877984
    C            1.425241653295    -2.582659472151     1.271846997487
    C            1.332893346825    -0.886085255577     3.127214968058
    C            3.130497354277    -0.713864279861     1.487265777835
    C            2.201941921818    -3.704896839957     2.085603639332
    C            0.303189797235     0.067148209437    -3.120537083799
    C            0.320706319053     1.967739068762    -1.429539953488
    C            1.876729285175     1.948029419653    -3.444662304886
    C            2.167689589145     3.779424844340    -1.646468221092
    C            3.108524167863     1.255475473373    -0.578235912415
    C            1.200780498938     1.070003839389    -2.352588042392
    C            1.331204923439     2.898538526613    -0.670774970560
    C            2.734237964192     3.120223404602    -2.927938485327
    C            0.475924445368     0.229578447015     0.454433674818
    C            0.441241973492     2.173161780001     2.224095761427
    C            2.229895492935     2.112817126289     0.355466860761
    C            2.241615933006     4.033527340264     2.087039827729
    C            3.101245879186     0.817106927993     3.461528692803
    C            1.371111209225     1.196480116854     1.357456417450
    C            1.285260512248     3.226882569353     3.000679043590
    C            3.079608151695     3.153028353164     1.132771254018
    H           -3.803923973665    -3.113466134169    -3.585382904816
    H           -3.593981953136    -4.394511790991    -2.396856279169
    H           -2.445002527454    -4.222545538217    -3.717953411921
    H           -3.859234740120    -2.634913190945    -0.772676949734
    H           -3.790814409183    -1.303545979421    -1.844617722121
    H           -2.055908642190    -1.177526312458    -3.679046499723
    H           -0.790772394144    -2.360583599503    -3.731976188609
    H           -1.642403540741    -4.196109991675    -0.642401134036
    H           -0.670790332302    -4.258143286430    -2.091531941827
    H           -4.714157672298    -2.118149999916     0.415949258912
    H           -4.491681652628    -3.242737925333     1.739563622777
    H           -3.754799532219    -3.583033366330     0.190720166946
    H           -3.403994889975    -2.143695218940     3.355603941502
    H           -4.158231328201    -0.843430292797     2.531801883420
    H           -0.036266315347    -3.623460475885     3.092492619003
    H           -0.950590387946    -2.333004600973     3.764620270174
    H           -2.777144690706     0.369428809313     3.901420482503
    H           -2.386260902607    -3.769104724154     2.515270598957
    H           -1.417403403332    -3.803565708480     1.107753200695
    H           -4.041294285552     1.257843225172    -3.644359965531
    H           -4.445991284217     0.048782146094    -2.446486572458
    H           -3.271904182469    -0.312585159775    -3.720063293410
    H           -4.120928630875     1.737786892536    -0.736465411184
    H           -3.734163362810     2.814197892239    -2.005238310495
    H           -2.346544043104     2.683064500342    -3.533238570873
    H           -1.217934599481     1.465885665169    -3.928639358301
    H           -0.770975486595     4.465150748887    -0.817056054630
    H           -2.066576749878     4.440478597449    -1.978806037863
    H           -2.894729379641     3.626073974451     0.208668191065
    H           -0.051281635063     3.446179240297    -2.991222162846
    H           -4.108790454044    -0.176154174858     1.150583520456
    H           -3.829240944080     0.734907220762    -0.243437733623
    H           -3.962513672141     1.388512956163     2.806623983853
    H           -4.068529567157     2.425799251239     1.426953796063
    H           -0.919480608102     4.286006823262     3.105617973515
    H           -1.869628080802     4.675695688743     1.717195317269
    H            0.142516415640     0.781428393927     3.896630700695
    H           -2.557434529479     2.856516848984     3.977361770321
    H           -3.549647409145     3.954162309298     3.074742188936
    H           -0.119355610368     3.713946078006     0.812474799579
    H            0.636379448526    -3.205997174086    -4.113303762012
    H            0.829936783021    -4.433576662706    -2.853602610820
    H            2.178014403743    -4.009890484171    -3.888437794317
    H            2.157417319443    -1.215814375988    -4.132826043805
    H            3.513026541942    -2.130527838730    -3.616108011132
    H            4.231517987877    -1.793072495281    -0.627350638471
    H            3.889443149520    -3.113332981100     0.419895068401
    H            3.610306596953     0.381913161227    -3.114781546235
    H            2.509568117444    -4.214802864051    -1.151404533771
    H            3.711546019452    -3.472821853851    -2.120444486608
    H            1.367147300330    -4.142272249296    -0.256406910938
    H            0.015605465737    -4.180171417445     0.813918773936
    H            3.522988565483    -4.476930373648     3.590228298386
    H            2.543435285570    -3.151799301159     4.187843128431
    H            3.934304594656    -2.832079657201     3.139578586109
    H            0.757448970093    -0.449204210078     3.942652459858
    H            3.942325040187    -0.158376758630     1.019954467855
    H            1.449160386888    -4.430763337814     2.387272781572
    H            2.806627118726    -4.234721745670     1.351739249415
    H           -0.340547139671     0.586449621463    -3.828668008634
    H            0.920400370021    -0.553537756551    -3.767635350386
    H            1.094235173516     2.352437334541    -4.083951361122
    H            2.475299515871     1.316283657858    -4.099104240633
    H            1.519778751792     4.596673154887    -1.959457508795
    H            2.977027354256     4.254268894655    -1.094528479411
    H            3.886581178096     0.711332662472    -0.044488927727
    H            0.774217613389     3.651259426838    -0.108805603075
    H            2.798459120855     3.878330904965    -3.705746567181
    H            3.755922644849     2.783835222415    -2.759661970883
    H            2.915884990953     4.617490581421     2.711672566418
    H            1.664634742204     4.751114750756     1.505819273196
    H            3.714357857893     1.632049945439     3.086688425289
    H            1.843645652744     2.752602923205     3.806760358453
    H            0.615532511492     3.930532091024     3.492172803597
    H            3.599842213814     3.798507358306     0.427019101089
    H            3.863046888181     2.643181977342     1.692136697941
    H           -1.624902876143    -0.895453773318     4.107050163286
    H           -1.085400396283     1.972206622029     3.751373210333
    H            4.140830100355    -0.711870683558    -1.901844180356
    H            2.038345882453    -1.547088768252     3.626182176582
    H            3.641579483343    -1.392898266907     2.165000352688
    H            3.663790009314     1.918735569984    -1.238694148866
    H            2.496638972491     1.184702996830     4.285289479508
    H            3.766357135648     0.058056454994     3.858910371971

gradient() will perform analytic gradient computation.
   => Loading Basis Set <=

    Name: STO-3G
    Role: ORBITAL
    Keyword: BASIS
    atoms 1-4, 6-67 entry C          line    60 file /home/hrgrimsl/psi4conda/share/psi4/basis/sto-3g.gbs 
    atoms 5         entry N          line    70 file /home/hrgrimsl/psi4conda/share/psi4/basis/sto-3g.gbs 
    atoms 68-151    entry H          line    18 file /home/hrgrimsl/psi4conda/share/psi4/basis/sto-3g.gbs 

