
    -----------------------------------------------------------------------
          Psi4: An Open-Source Ab Initio Electronic Structure Package
                               Psi4 1.1rc1 

                         Git: Rev {HEAD} 6db9b1f 


    R. M. Parrish, L. A. Burns, D. G. A. Smith, A. C. Simmonett,
    A. E. DePrince III, E. G. Hohenstein, U. Bozkaya, A. Yu. Sokolov,
    R. Di Remigio, R. M. Richard, J. F. Gonthier, A. M. James,
    H. R. McAlexander, A. Kumar, M. Saitow, X. Wang, B. P. Pritchard,
    P. Verma, H. F. Schaefer III, K. Patkowski, R. A. King, E. F. Valeev,
    F. A. Evangelista, J. M. Turney, T. D. Crawford, and C. D. Sherrill,
    submitted.

    -----------------------------------------------------------------------


    Psi4 started on: Friday, 07 December 2018 10:16AM

    Process ID:   3942
    PSIDATADIR: /home/hrgrimsl/psi4conda/share/psi4
    Memory:     500.0 MiB
    Threads:    1
    
  ==> Input File <==

--------------------------------------------------------------------------
# PYTHONPATH must include directory above plugin directory.
#     Define either externally or here, then import plugin.
sys.path.insert(0, '.')

import os

#Set this up like a dictionary
SI = {
'name': 'peroxide',
'basis': 'cc-pvtz/cc-pvtz',
'frags': '1/1',
'methods': 'scf/scf',
'scratch': 'scr',
'envir': 'local'
}

sifile = open('SI.txt', 'w')
sifile.write(SI['name']+'\n')
sifile.write(SI['frags']+'\n')
sifile.write(SI['methods']+'\n')
sifile.write(SI['basis']+'\n')
sifile.write(SI['scratch']+'\n')
sifile.write(SI['envir']+'\n')
sifile.close()
import scf_template

molecule {
0 2

   O       -6.38985        1.70475        0.05137
   C       -5.36282        0.72666        0.01011
   H       -4.67026        0.86652        0.84590
   H       -4.82313        0.78140       -0.94040
   H       -5.82165       -0.26180        0.09648
   O       -5.72948        2.94017       -0.06346
}

optimize('scf_template')
--------------------------------------------------------------------------
gradient() will perform analytic gradient computation.
   => Loading Basis Set <=

    Name: STO-3G
    Role: ORBITAL
    Keyword: BASIS
    atoms 1, 6 entry O          line    80 file /home/hrgrimsl/psi4conda/share/psi4/basis/sto-3g.gbs 
    atoms 2    entry C          line    60 file /home/hrgrimsl/psi4conda/share/psi4/basis/sto-3g.gbs 
    atoms 3-5  entry H          line    18 file /home/hrgrimsl/psi4conda/share/psi4/basis/sto-3g.gbs 

