
    -----------------------------------------------------------------------
          Psi4: An Open-Source Ab Initio Electronic Structure Package
                               Psi4 1.1rc1 

                         Git: Rev {HEAD} 6db9b1f 


    R. M. Parrish, L. A. Burns, D. G. A. Smith, A. C. Simmonett,
    A. E. DePrince III, E. G. Hohenstein, U. Bozkaya, A. Yu. Sokolov,
    R. Di Remigio, R. M. Richard, J. F. Gonthier, A. M. James,
    H. R. McAlexander, A. Kumar, M. Saitow, X. Wang, B. P. Pritchard,
    P. Verma, H. F. Schaefer III, K. Patkowski, R. A. King, E. F. Valeev,
    F. A. Evangelista, J. M. Turney, T. D. Crawford, and C. D. Sherrill,
    submitted.

    -----------------------------------------------------------------------


    Psi4 started on: Thursday, 06 December 2018 01:55PM

    Process ID:  25082
    PSIDATADIR: /home/hrgrimsl/psi4conda/share/psi4
    Memory:     500.0 MiB
    Threads:    1
    
  ==> Input File <==

--------------------------------------------------------------------------
# PYTHONPATH must include directory above plugin directory.
#     Define either externally or here, then import plugin.
sys.path.insert(0, '.')

import os

#Set this up like a dictionary
SI = {
'name': 'peroxide',
'basis': 'cc-pvtz/cc-pvtz',
'frags': '-1/1',
'methods': 'scf/scf',
'scratch': 'scr',
'envir': 'local'
}

sifile = open('SI.txt', 'w')
sifile.write(SI['name']+'\n')
sifile.write(SI['frags']+'\n')
sifile.write(SI['methods']+'\n')
sifile.write(SI['basis']+'\n')
sifile.write(SI['scratch']+'\n')
sifile.write(SI['envir']+'\n')
sifile.close()
import scf_template

molecule {
0 2

   O       -6.38985        1.70475        0.05137
   C       -5.36282        0.72666        0.01011
   H       -4.67026        0.86652        0.84590
   H       -4.82313        0.78140       -0.94040
   H       -5.82165       -0.26180        0.09648
   O       -5.72948        2.94017       -0.06346
}

optimize('scf_template')
--------------------------------------------------------------------------
gradient() will perform analytic gradient computation.
   => Loading Basis Set <=

    Name: STO-3G
    Role: ORBITAL
    Keyword: BASIS
    atoms 1, 6 entry O          line    80 file /home/hrgrimsl/psi4conda/share/psi4/basis/sto-3g.gbs 
    atoms 2    entry C          line    60 file /home/hrgrimsl/psi4conda/share/psi4/basis/sto-3g.gbs 
    atoms 3-5  entry H          line    18 file /home/hrgrimsl/psi4conda/share/psi4/basis/sto-3g.gbs 


			-----------------------------------------
			 OPTKING 2.0: for geometry optimizations 
			  - R.A. King,  Bethel University        
			-----------------------------------------

	Internal coordinates to be generated automatically.
	Detected frag 1 with atoms:  1 2 3 4 5 6
	---Fragment 1 Bond Connectivity---
	 1 : 2 6
	 2 : 1 3 4 5
	 3 : 2
	 4 : 2
	 5 : 2
	 6 : 1

	---Fragment 1 Geometry and Gradient---
	 O          -1.0760992115       -0.1714764604        0.0998914540
	 C           0.8647062187       -2.0197986937        0.0219213538
	 H           2.1734549493       -1.7555015967        1.6013355584
	 H           1.8845725154       -1.9163550852       -1.7742822328
	 H          -0.0023568228       -3.8877173870        0.1851369998
	 O           0.1718192348        2.1631289987       -0.1171057978
	            -0.0458663453       -0.0519689042        0.0063658719
	            -0.0041134253        0.0081333141       -0.0000345439
	             0.0059924197        0.0001460051        0.0076526250
	             0.0045997889       -0.0006244374       -0.0085325497
	             0.0017435418       -0.0103056394        0.0003432458
	             0.0376440201        0.0546196619       -0.0057946491

	Previous optimization step data not found.  Starting new optimization.

	---Fragment 1 Intrafragment Coordinates---
	 - Coordinate -           - BOHR/RAD -       - ANG/DEG -
	 R(1,2)           =         2.681250	       1.418856
	 R(1,6)           =         2.656082	       1.405538
	 R(2,3)           =         2.068145	       1.094415
	 R(2,4)           =         2.068133	       1.094409
	 R(2,5)           =         2.065807	       1.093178
	 B(1,2,3)         =         1.925971	     110.350033
	 B(1,2,4)         =         1.925943	     110.348414
	 B(1,2,5)         =         1.893579	     108.494070
	 B(2,1,6)         =         1.837397	     105.275093
	 B(3,2,4)         =         1.922843	     110.170761
	 B(3,2,5)         =         1.897392	     108.712525
	 B(4,2,5)         =         1.897397	     108.712825
	 D(3,2,1,6)       =         1.064174	      60.972680
	 D(4,2,1,6)       =        -1.064999	     -61.019935
	 D(5,2,1,6)       =         3.141185	     179.976666

	Current energy   :      -189.2623053853

	Generating empirical Hessian (Schlegel '84) for each fragment.
	Taking RFO optimization step.
	Going to follow RFO solution 1.
	Using RFO vector 1.
	Norm of target step-size    0.17995
	Projected energy change by RFO approximation:        -0.0113974878

	Back-transformation to cartesian coordinates...
	Successfully converged to displaced geometry.

	--- Internal Coordinate Step in ANG or DEG, aJ/ANG or AJ/DEG ---
	 ---------------------------------------------------------------------------
	   Coordinate                Previous        Force       Change         New 
	   ----------                --------       ------       ------       ------
	    1 R(1,2)          =      1.418856    -0.064217    -0.009399     1.409457
	    2 R(1,6)          =      1.405538    -0.545156    -0.076179     1.329359
	    3 R(2,3)          =      1.094415    -0.079542    -0.014369     1.080047
	    4 R(2,4)          =      1.094409    -0.079483    -0.014357     1.080051
	    5 R(2,5)          =      1.093178    -0.070969    -0.012769     1.080409
	    6 B(1,2,3)        =    110.350033     0.000041     0.280332   110.630365
	    7 B(1,2,4)        =    110.348414     0.000042     0.282541   110.630955
	    8 B(1,2,5)        =    108.494070    -0.000664    -2.926566   105.567504
	    9 B(2,1,6)        =    105.275093     0.001508     4.326305   109.601398
	   10 B(3,2,4)        =    110.170761     0.000043     0.290773   110.461534
	   11 B(3,2,5)        =    108.712525     0.000267     1.005498   109.718023
	   12 B(4,2,5)        =    108.712825     0.000267     1.005541   109.718366
	   13 D(3,2,1,6)      =     60.972680     0.000013     0.383688    61.356369
	   14 D(4,2,1,6)      =    -61.019935    -0.000013    -0.366591   -61.386526
	   15 D(5,2,1,6)      =    179.976666     0.000000     0.007897   179.984563
	 ---------------------------------------------------------------------------
	Successfully symmetrized geometry.

  ==> Convergence Check <==

  Measures of convergence in internal coordinates in au.
  Criteria marked as inactive (o), active & met (*), and active & unmet ( ).
  --------------------------------------------------------------------------------------------- ~
   Step     Total Energy     Delta E     MAX Force     RMS Force      MAX Disp      RMS Disp    ~
  --------------------------------------------------------------------------------------------- ~
    Convergence Criteria    1.00e-06 *    3.00e-04 *             o    1.20e-03 *             o  ~
  --------------------------------------------------------------------------------------------- ~
      1    -189.26230539   -1.89e+02      6.62e-02      1.86e-02 o    1.44e-01      4.63e-02 o  ~
  ---------------------------------------------------------------------------------------------

	Writing optimization data to binary file.
	Structure for next step:
	Cartesian Geometry (in Angstrom)
	    O    -0.5079164870  -0.0559653253   0.0459490083
	    C     0.4692514075  -1.0710866289   0.0107299425
	    H     1.1551423451  -0.9679300738   0.8386270007
	    H     1.0041626460  -1.0520116437  -0.9273624527
	    H    -0.0745173117  -2.0002614429   0.1014625228
	    O     0.0791043385   1.1320065068  -0.0604643369
			--------------------------
			 OPTKING Finished Execution 
			--------------------------

    Structure for next step:
    Molecular point group: c1
    Full point group: C1

    Geometry (in Angstrom), charge = 0, multiplicity = 2:

    O           -0.526492173406    -0.062484456522     0.047875813338
    C            0.450675721165    -1.077605760079     0.012656747543
    H            1.136566658748    -0.974449204994     0.840553805735
    H            0.985586959605    -1.058530774848    -0.925435647725
    H           -0.093092998047    -2.006780574073     0.103389327852
    O            0.060528652125     1.125487375585    -0.058537531897

gradient() will perform analytic gradient computation.
   => Loading Basis Set <=

    Name: STO-3G
    Role: ORBITAL
    Keyword: BASIS
    atoms 1, 6 entry O          line    80 file /home/hrgrimsl/psi4conda/share/psi4/basis/sto-3g.gbs 
    atoms 2    entry C          line    60 file /home/hrgrimsl/psi4conda/share/psi4/basis/sto-3g.gbs 
    atoms 3-5  entry H          line    18 file /home/hrgrimsl/psi4conda/share/psi4/basis/sto-3g.gbs 


			-----------------------------------------
			 OPTKING 2.0: for geometry optimizations 
			  - R.A. King,  Bethel University        
			-----------------------------------------

	Previous internal coordinate definitions found.
	---Fragment 1 Geometry and Gradient---
	 O          -0.9949260188       -0.1180785104        0.0904721756
	 C           0.8516536877       -2.0363797658        0.0239177866
	 H           2.1477997168       -1.8414421278        1.5884164928
	 H           1.8624894338       -2.0003332677       -1.7488199278
	 H          -0.1759202712       -3.7922656938        0.1953775147
	 O           0.1143825757        2.1268629059       -0.1106199038
	            -0.0146404781       -0.0244051414        0.0024051894
	             0.0024876968        0.0045596225       -0.0004287177
	            -0.0003770848       -0.0009116101       -0.0001450391
	            -0.0003388808       -0.0008913111        0.0002902749
	            -0.0002750360       -0.0000639887        0.0000277971
	             0.0131437829        0.0217124287       -0.0021495045

	---Fragment 1 Intrafragment Coordinates---
	 - Coordinate -           - BOHR/RAD -       - ANG/DEG -
	 R(1,2)           =         2.663488	       1.409457
	 R(1,6)           =         2.512124	       1.329359
	 R(2,3)           =         2.040993	       1.080047
	 R(2,4)           =         2.041002	       1.080051
	 R(2,5)           =         2.041676	       1.080409
	 B(1,2,3)         =         1.930864	     110.630365
	 B(1,2,4)         =         1.930874	     110.630955
	 B(1,2,5)         =         1.842501	     105.567504
	 B(2,1,6)         =         1.912905	     109.601398
	 B(3,2,4)         =         1.927917	     110.461534
	 B(3,2,5)         =         1.914941	     109.718023
	 B(4,2,5)         =         1.914947	     109.718366
	 D(3,2,1,6)       =         1.070871	      61.356369
	 D(4,2,1,6)       =        -1.071397	     -61.386526
	 D(5,2,1,6)       =         3.141323	     179.984563

	Current energy   :      -189.2708044467

	Energy change for the previous step:
		Projected    :        -0.0113974878
		Actual       :        -0.0084990614

	Performing BFGS update.
	Previous computed or guess Hessian on step 1.
	Steps to be used in Hessian update: 1
	Taking RFO optimization step.
	Going to follow RFO solution 1.
	Using RFO vector 1.
	Norm of target step-size    0.09853
	Projected energy change by RFO approximation:        -0.0027452771

	Back-transformation to cartesian coordinates...
	Successfully converged to displaced geometry.

	--- Internal Coordinate Step in ANG or DEG, aJ/ANG or AJ/DEG ---
	 ---------------------------------------------------------------------------
	   Coordinate                Previous        Force       Change         New 
	   ----------                --------       ------       ------       ------
	    1 R(1,2)          =      1.409457     0.007380     0.001241     1.410698
	    2 R(1,6)          =      1.329359    -0.209098    -0.046839     1.282519
	    3 R(2,3)          =      1.080047     0.003607     0.000452     1.080499
	    4 R(2,4)          =      1.080051     0.003591     0.000448     1.080499
	    5 R(2,5)          =      1.080409    -0.001614    -0.000909     1.079500
	    6 B(1,2,3)        =    110.630365    -0.000076    -0.560474   110.069891
	    7 B(1,2,4)        =    110.630955    -0.000076    -0.561142   110.069813
	    8 B(1,2,5)        =    105.567504     0.000075     0.656446   106.223950
	    9 B(2,1,6)        =    109.601398     0.000415     1.942261   111.543659
	   10 B(3,2,4)        =    110.461534    -0.000006    -0.382360   110.079174
	   11 B(3,2,5)        =    109.718023     0.000044     0.447896   110.165919
	   12 B(4,2,5)        =    109.718366     0.000044     0.447064   110.165430
	   13 D(3,2,1,6)      =     61.356369    -0.000013    -0.608538    60.747831
	   14 D(4,2,1,6)      =    -61.386526     0.000013     0.625740   -60.760786
	   15 D(5,2,1,6)      =    179.984563     0.000000     0.009272   179.993835
	 ---------------------------------------------------------------------------
	Successfully symmetrized geometry.

  ==> Convergence Check <==

  Measures of convergence in internal coordinates in au.
  Criteria marked as inactive (o), active & met (*), and active & unmet ( ).
  ---------------------------------------------------------------------------------------------
   Step     Total Energy     Delta E     MAX Force     RMS Force      MAX Disp      RMS Disp   
  ---------------------------------------------------------------------------------------------
    Convergence Criteria    1.00e-06 *    3.00e-04 *             o    1.20e-03 *             o
  ---------------------------------------------------------------------------------------------
      2    -189.27080445   -8.50e-03      2.54e-02      6.73e-03 o    8.85e-02      2.54e-02 o  ~
  ---------------------------------------------------------------------------------------------

	Writing optimization data to binary file.
	Structure for next step:
	Cartesian Geometry (in Angstrom)
	    O    -0.5193240930  -0.0619599625   0.0471847833
	    C     0.4585105360  -1.0781670192   0.0121108694
	    H     1.1457724664  -0.9600741825   0.8374611402
	    H     0.9950532422  -1.0442649289  -0.9251466584
	    H    -0.0743086136  -2.0126660538   0.1023028646
	    O     0.0080692823   1.1027687519  -0.0534104842
			--------------------------
			 OPTKING Finished Execution 
			--------------------------

    Structure for next step:
    Molecular point group: c1
    Full point group: C1

    Geometry (in Angstrom), charge = 0, multiplicity = 2:

    O           -0.506717811341    -0.054753600958     0.045898283536
    C            0.471116817627    -1.070960657678     0.010824369585
    H            1.158378748037    -0.952867820938     0.836174640411
    H            1.007659523851    -1.037058567400    -0.926433158191
    H           -0.061702331979    -2.005459692239     0.101016364797
    O            0.020675564005     1.109975113443    -0.054696983991

gradient() will perform analytic gradient computation.
   => Loading Basis Set <=

    Name: STO-3G
    Role: ORBITAL
    Keyword: BASIS
    atoms 1, 6 entry O          line    80 file /home/hrgrimsl/psi4conda/share/psi4/basis/sto-3g.gbs 
    atoms 2    entry C          line    60 file /home/hrgrimsl/psi4conda/share/psi4/basis/sto-3g.gbs 
    atoms 3-5  entry H          line    18 file /home/hrgrimsl/psi4conda/share/psi4/basis/sto-3g.gbs 


			-----------------------------------------
			 OPTKING 2.0: for geometry optimizations 
			  - R.A. King,  Bethel University        
			-----------------------------------------

	Previous internal coordinate definitions found.
	---Fragment 1 Geometry and Gradient---
	 O          -0.9575578901       -0.1034693106        0.0867351859
	 C           0.8902817619       -2.0238223421        0.0204550941
	 H           2.1890185919       -1.8006592224        1.5801410696
	 H           1.9042005353       -1.9597566761       -1.7507049494
	 H          -0.1166005092       -3.7897695889        0.1908932644
	 O           0.0390711536        2.0975489787       -0.1033623200
	             0.0072229482        0.0107350614       -0.0011299611
	            -0.0017936759        0.0007398042        0.0001188477
	            -0.0001409641        0.0001063586       -0.0002896420
	            -0.0000915680        0.0001341149        0.0002978722
	             0.0003242569       -0.0006450930        0.0000028532
	            -0.0055209971       -0.0110702462        0.0010000299

	---Fragment 1 Intrafragment Coordinates---
	 - Coordinate -           - BOHR/RAD -       - ANG/DEG -
	 R(1,2)           =         2.665832	       1.410698
	 R(1,6)           =         2.423611	       1.282519
	 R(2,3)           =         2.041847	       1.080499
	 R(2,4)           =         2.041848	       1.080499
	 R(2,5)           =         2.039959	       1.079500
	 B(1,2,3)         =         1.921082	     110.069891
	 B(1,2,4)         =         1.921081	     110.069813
	 B(1,2,5)         =         1.853958	     106.223950
	 B(2,1,6)         =         1.946804	     111.543659
	 B(3,2,4)         =         1.921244	     110.079174
	 B(3,2,5)         =         1.922758	     110.165919
	 B(4,2,5)         =         1.922749	     110.165430
	 D(3,2,1,6)       =         1.060250	      60.747831
	 D(4,2,1,6)       =        -1.060476	     -60.760786
	 D(5,2,1,6)       =         3.141485	     179.993835

	Current energy   :      -189.2715630491

	Energy change for the previous step:
		Projected    :        -0.0027452771
		Actual       :        -0.0007586024

	Performing BFGS update.
	Previous computed or guess Hessian on step 1.
	Steps to be used in Hessian update: 2 1
	Taking RFO optimization step.
	Going to follow RFO solution 1.
	Using RFO vector 1.
	Norm of target step-size    0.03841
	Projected energy change by RFO approximation:        -0.0004240036

	Back-transformation to cartesian coordinates...
	Successfully converged to displaced geometry.

	--- Internal Coordinate Step in ANG or DEG, aJ/ANG or AJ/DEG ---
	 ---------------------------------------------------------------------------
	   Coordinate                Previous        Force       Change         New 
	   ----------                --------       ------       ------       ------
	    1 R(1,2)          =      1.410698     0.011737     0.001464     1.412161
	    2 R(1,6)          =      1.282519     0.102177     0.018960     1.301479
	    3 R(2,3)          =      1.080499     0.002466     0.000536     1.081035
	    4 R(2,4)          =      1.080499     0.002469     0.000537     1.081036
	    5 R(2,5)          =      1.079500    -0.003285    -0.000216     1.079284
	    6 B(1,2,3)        =    110.069891     0.000022     0.159366   110.229257
	    7 B(1,2,4)        =    110.069813     0.000022     0.159730   110.229543
	    8 B(1,2,5)        =    106.223950    -0.000082    -0.416229   105.807721
	    9 B(2,1,6)        =    111.543659    -0.000085    -0.500210   111.043449
	   10 B(3,2,4)        =    110.079174     0.000012     0.167325   110.246500
	   11 B(3,2,5)        =    110.165919     0.000012    -0.044985   110.120934
	   12 B(4,2,5)        =    110.165430     0.000012    -0.044607   110.120823
	   13 D(3,2,1,6)      =     60.747831     0.000005     0.219386    60.967216
	   14 D(4,2,1,6)      =    -60.760786    -0.000005    -0.200136   -60.960921
	   15 D(5,2,1,6)      =    179.993835     0.000000     0.009303   180.003138
	 ---------------------------------------------------------------------------
	Successfully symmetrized geometry.

  ==> Convergence Check <==

  Measures of convergence in internal coordinates in au.
  Criteria marked as inactive (o), active & met (*), and active & unmet ( ).
  ---------------------------------------------------------------------------------------------
   Step     Total Energy     Delta E     MAX Force     RMS Force      MAX Disp      RMS Disp   
  ---------------------------------------------------------------------------------------------
    Convergence Criteria    1.00e-06 *    3.00e-04 *             o    1.20e-03 *             o
  ---------------------------------------------------------------------------------------------
      3    -189.27156305   -7.59e-04      1.24e-02      3.26e-03 o    3.58e-02      9.92e-03 o  ~
  ---------------------------------------------------------------------------------------------

	Writing optimization data to binary file.
	Structure for next step:
	Cartesian Geometry (in Angstrom)
	    O    -0.5155728051  -0.0644304961   0.0472107348
	    C     0.4739691695  -1.0712403195   0.0106094097
	    H     1.1601461857  -0.9511764678   0.8372790958
	    H     1.0091112720  -1.0354542864  -0.9279970854
	    H    -0.0555858592  -2.0073625845   0.1006089295
	    O     0.0173425472   1.1185389285  -0.0549275682
			--------------------------
			 OPTKING Finished Execution 
			--------------------------

    Structure for next step:
    Molecular point group: c1
    Full point group: C1

    Geometry (in Angstrom), charge = 0, multiplicity = 2:

    O           -0.512354370274    -0.064010276280     0.046916112650
    C            0.477187604331    -1.070820099684     0.010314787518
    H            1.163364620551    -0.950756247928     0.836984473612
    H            1.012329706848    -1.035034066575    -0.928291707552
    H           -0.052367424391    -2.006942364626     0.100314307351
    O            0.020560981988     1.118959148339    -0.055222190389

gradient() will perform analytic gradient computation.
   => Loading Basis Set <=

    Name: STO-3G
    Role: ORBITAL
    Keyword: BASIS
    atoms 1, 6 entry O          line    80 file /home/hrgrimsl/psi4conda/share/psi4/basis/sto-3g.gbs 
    atoms 2    entry C          line    60 file /home/hrgrimsl/psi4conda/share/psi4/basis/sto-3g.gbs 
    atoms 3-5  entry H          line    18 file /home/hrgrimsl/psi4conda/share/psi4/basis/sto-3g.gbs 


			-----------------------------------------
			 OPTKING 2.0: for geometry optimizations 
			  - R.A. King,  Bethel University        
			-----------------------------------------

	Previous internal coordinate definitions found.
	---Fragment 1 Geometry and Gradient---
	 O          -0.9682094428       -0.1209618919        0.0886586041
	 C           0.9017538862       -2.0235567260        0.0194921235
	 H           2.1984405255       -1.7966689277        1.5816714326
	 H           1.9130259021       -1.9559309240       -1.7542170987
	 H          -0.0989600904       -3.7925714336        0.1895665681
	 O           0.0388546250        2.1145263442       -0.1043548163
	            -0.0019331005       -0.0042798658        0.0003707622
	            -0.0001025577        0.0000026258        0.0000090924
	             0.0000989676       -0.0000642344        0.0001700410
	             0.0000703134       -0.0000813167       -0.0001783127
	             0.0000092916       -0.0000422593        0.0000009802
	             0.0018570856        0.0044650503       -0.0003725632

	---Fragment 1 Intrafragment Coordinates---
	 - Coordinate -           - BOHR/RAD -       - ANG/DEG -
	 R(1,2)           =         2.668598	       1.412161
	 R(1,6)           =         2.459439	       1.301479
	 R(2,3)           =         2.042860	       1.081035
	 R(2,4)           =         2.042863	       1.081036
	 R(2,5)           =         2.039551	       1.079284
	 B(1,2,3)         =         1.923863	     110.229257
	 B(1,2,4)         =         1.923868	     110.229543
	 B(1,2,5)         =         1.846693	     105.807721
	 B(2,1,6)         =         1.938074	     111.043449
	 B(3,2,4)         =         1.924164	     110.246500
	 B(3,2,5)         =         1.921973	     110.120934
	 B(4,2,5)         =         1.921971	     110.120823
	 D(3,2,1,6)       =         1.064079	      60.967216
	 D(4,2,1,6)       =        -1.063969	     -60.960921
	 D(5,2,1,6)       =        -3.141538	    -179.996862

	Current energy   :      -189.2717053009

	Energy change for the previous step:
		Projected    :        -0.0004240036
		Actual       :        -0.0001422518

	Performing BFGS update.
	Previous computed or guess Hessian on step 1.
	Steps to be used in Hessian update: 3 2
	Taking RFO optimization step.
	Going to follow RFO solution 1.
	Using RFO vector 1.
	Norm of target step-size    0.01244
	Projected energy change by RFO approximation:        -0.0000632439

	Back-transformation to cartesian coordinates...
	Successfully converged to displaced geometry.

	--- Internal Coordinate Step in ANG or DEG, aJ/ANG or AJ/DEG ---
	 ---------------------------------------------------------------------------
	   Coordinate                Previous        Force       Change         New 
	   ----------                --------       ------       ------       ------
	    1 R(1,2)          =      1.412161    -0.001522     0.000088     1.412249
	    2 R(1,6)          =      1.301479    -0.039948    -0.006446     1.295033
	    3 R(2,3)          =      1.081035    -0.001529    -0.000257     1.080778
	    4 R(2,4)          =      1.081036    -0.001539    -0.000259     1.080777
	    5 R(2,5)          =      1.079284    -0.000267    -0.000234     1.079050
	    6 B(1,2,3)        =    110.229257    -0.000006    -0.038978   110.190279
	    7 B(1,2,4)        =    110.229543    -0.000006    -0.039514   110.190029
	    8 B(1,2,5)        =    105.807721     0.000002    -0.024253   105.783467
	    9 B(2,1,6)        =    111.043449    -0.000026    -0.042582   111.000867
	   10 B(3,2,4)        =    110.246500    -0.000002    -0.027107   110.219393
	   11 B(3,2,5)        =    110.120934     0.000006     0.065312   110.186246
	   12 B(4,2,5)        =    110.120823     0.000006     0.065457   110.186280
	   13 D(3,2,1,6)      =     60.967216    -0.000001    -0.049417    60.917799
	   14 D(4,2,1,6)      =    -60.960921     0.000001     0.036600   -60.924321
	   15 D(5,2,1,6)      =   -179.996862    -0.000000    -0.006353  -180.003215
	 ---------------------------------------------------------------------------
	Successfully symmetrized geometry.

  ==> Convergence Check <==

  Measures of convergence in internal coordinates in au.
  Criteria marked as inactive (o), active & met (*), and active & unmet ( ).
  ---------------------------------------------------------------------------------------------
   Step     Total Energy     Delta E     MAX Force     RMS Force      MAX Disp      RMS Disp   
  ---------------------------------------------------------------------------------------------
    Convergence Criteria    1.00e-06 *    3.00e-04 *             o    1.20e-03 *             o
  ---------------------------------------------------------------------------------------------
      4    -189.27170530   -1.42e-04      4.85e-03      1.26e-03 o    1.22e-02      3.21e-03 o  ~
  ---------------------------------------------------------------------------------------------

	Writing optimization data to binary file.
	Structure for next step:
	Cartesian Geometry (in Angstrom)
	    O    -0.5119879679  -0.0632815099   0.0468728940
	    C     0.4775453822  -1.0702216956   0.0102366134
	    H     1.1636885888  -0.9491649942   0.8364534968
	    H     1.0125774342  -1.0334562843  -0.9280962348
	    H    -0.0523474760  -2.0058759467   0.1003108826
	    O     0.0192451578   1.1133965239  -0.0547618689
			--------------------------
			 OPTKING Finished Execution 
			--------------------------

    Structure for next step:
    Molecular point group: c1
    Full point group: C1

    Geometry (in Angstrom), charge = 0, multiplicity = 2:

    O           -0.511768959409    -0.061880466024     0.046758206201
    C            0.477764390691    -1.068820651730     0.010121925531
    H            1.163907597276    -0.947763950292     0.836338808934
    H            1.012796442727    -1.032055240406    -0.928210922595
    H           -0.052128467452    -2.004474902857     0.100196194788
    O            0.019464166284     1.114797567737    -0.054876556739

gradient() will perform analytic gradient computation.
   => Loading Basis Set <=

    Name: STO-3G
    Role: ORBITAL
    Keyword: BASIS
    atoms 1, 6 entry O          line    80 file /home/hrgrimsl/psi4conda/share/psi4/basis/sto-3g.gbs 
    atoms 2    entry C          line    60 file /home/hrgrimsl/psi4conda/share/psi4/basis/sto-3g.gbs 
    atoms 3-5  entry H          line    18 file /home/hrgrimsl/psi4conda/share/psi4/basis/sto-3g.gbs 


			-----------------------------------------
			 OPTKING 2.0: for geometry optimizations 
			  - R.A. King,  Bethel University        
			-----------------------------------------

	Previous internal coordinate definitions found.
	---Fragment 1 Geometry and Gradient---
	 O          -0.9671031766       -0.1169371338        0.0883602042
	 C           0.9028438545       -2.0197783169        0.0191276672
	 H           2.1994666028       -1.7910143047        1.5804513032
	 H           1.9139079051       -1.9503017584       -1.7540644373
	 H          -0.0985085272       -3.7879086066        0.1893433677
	 O           0.0367819437        2.1066620966       -0.1037016634
	            -0.0001053663        0.0006399099       -0.0000222121
	             0.0002476200        0.0003766088       -0.0000394081
	             0.0000480766       -0.0000371875       -0.0000026622
	             0.0000472403       -0.0000368106       -0.0000014758
	            -0.0001134330        0.0001929886        0.0000006646
	            -0.0001241377       -0.0011355092        0.0000650936

	---Fragment 1 Intrafragment Coordinates---
	 - Coordinate -           - BOHR/RAD -       - ANG/DEG -
	 R(1,2)           =         2.668764	       1.412249
	 R(1,6)           =         2.447257	       1.295033
	 R(2,3)           =         2.042375	       1.080778
	 R(2,4)           =         2.042373	       1.080777
	 R(2,5)           =         2.039109	       1.079050
	 B(1,2,3)         =         1.923183	     110.190279
	 B(1,2,4)         =         1.923179	     110.190029
	 B(1,2,5)         =         1.846270	     105.783467
	 B(2,1,6)         =         1.937331	     111.000867
	 B(3,2,4)         =         1.923691	     110.219393
	 B(3,2,5)         =         1.923113	     110.186246
	 B(4,2,5)         =         1.923113	     110.186280
	 D(3,2,1,6)       =         1.063216	      60.917799
	 D(4,2,1,6)       =        -1.063330	     -60.924321
	 D(5,2,1,6)       =         3.141537	     179.996785

	Current energy   :      -189.2717284974

	Energy change for the previous step:
		Projected    :        -0.0000632439
		Actual       :        -0.0000231966

	Performing BFGS update.
	Previous computed or guess Hessian on step 1.
	Steps to be used in Hessian update: 4 3
	Taking RFO optimization step.
	Going to follow RFO solution 1.
	Using RFO vector 1.
	Norm of target step-size    0.00413
	Projected energy change by RFO approximation:        -0.0000077689

	Back-transformation to cartesian coordinates...
	Could not converge backtransformation.
	Using first guess instead.

	--- Internal Coordinate Step in ANG or DEG, aJ/ANG or AJ/DEG ---
	 ---------------------------------------------------------------------------
	   Coordinate                Previous        Force       Change         New 
	   ----------                --------       ------       ------       ------
	    1 R(1,2)          =      1.412249     0.001580     0.000217     1.412466
	    2 R(1,6)          =      1.295033     0.008958     0.001091     1.296123
	    3 R(2,3)          =      1.080778    -0.000200    -0.000078     1.080701
	    4 R(2,4)          =      1.080777    -0.000192    -0.000076     1.080701
	    5 R(2,5)          =      1.079050     0.000918     0.000146     1.079196
	    6 B(1,2,3)        =    110.190279    -0.000009    -0.043153   110.147126
	    7 B(1,2,4)        =    110.190029    -0.000009    -0.042831   110.147198
	    8 B(1,2,5)        =    105.783467     0.000026     0.108898   105.892365
	    9 B(2,1,6)        =    111.000867     0.000066     0.153327   111.154194
	   10 B(3,2,4)        =    110.219393     0.000002    -0.002764   110.216629
	   11 B(3,2,5)        =    110.186246    -0.000004    -0.008490   110.177756
	   12 B(4,2,5)        =    110.186280    -0.000005    -0.008510   110.177770
	   13 D(3,2,1,6)      =     60.917799    -0.000001    -0.026571    60.891228
	   14 D(4,2,1,6)      =    -60.924321     0.000001     0.033650   -60.890671
	   15 D(5,2,1,6)      =    179.996785     0.000000     0.003215   180.000000
	 ---------------------------------------------------------------------------
	Successfully symmetrized geometry.

  ==> Convergence Check <==

  Measures of convergence in internal coordinates in au.
  Criteria marked as inactive (o), active & met (*), and active & unmet ( ).
  ---------------------------------------------------------------------------------------------
   Step     Total Energy     Delta E     MAX Force     RMS Force      MAX Disp      RMS Disp   
  ---------------------------------------------------------------------------------------------
    Convergence Criteria    1.00e-06 *    3.00e-04 *             o    1.20e-03 *             o
  ---------------------------------------------------------------------------------------------
      5    -189.27172850   -2.32e-05      1.09e-03      3.79e-04 o    2.68e-03      1.07e-03 o  ~
  ---------------------------------------------------------------------------------------------

	Writing optimization data to binary file.
	Structure for next step:
	Cartesian Geometry (in Angstrom)
	    O    -0.5110180750  -0.0613983136   0.0466962532
	    C     0.4776076844  -1.0695371984   0.0101738159
	    H     1.1636801092  -0.9481873255   0.8363049969
	    H     1.0125824083  -1.0324425183  -0.9280906854
	    H    -0.0515679550  -2.0057698456   0.1001989757
	    O     0.0187509982   1.1171375577  -0.0549557002
			--------------------------
			 OPTKING Finished Execution 
			--------------------------

    Structure for next step:
    Molecular point group: c1
    Full point group: C1

    Geometry (in Angstrom), charge = 0, multiplicity = 2:

    O           -0.510993458909    -0.062130431778     0.046729099978
    C            0.477632300552    -1.070269316563     0.010206662724
    H            1.163704725365    -0.948919443654     0.836337843704
    H            1.012607024370    -1.033174636480    -0.928057838524
    H           -0.051543338882    -2.006501963775     0.100231822563
    O            0.018775614320     1.116405439536    -0.054922853360

gradient() will perform analytic gradient computation.
   => Loading Basis Set <=

    Name: STO-3G
    Role: ORBITAL
    Keyword: BASIS
    atoms 1, 6 entry O          line    80 file /home/hrgrimsl/psi4conda/share/psi4/basis/sto-3g.gbs 
    atoms 2    entry C          line    60 file /home/hrgrimsl/psi4conda/share/psi4/basis/sto-3g.gbs 
    atoms 3-5  entry H          line    18 file /home/hrgrimsl/psi4conda/share/psi4/basis/sto-3g.gbs 


			-----------------------------------------
			 OPTKING 2.0: for geometry optimizations 
			  - R.A. King,  Bethel University        
			-----------------------------------------

	Previous internal coordinate definitions found.
	---Fragment 1 Geometry and Gradient---
	 O          -0.9656376930       -0.1174095006        0.0883052014
	 C           0.9025942403       -2.0225158967        0.0192877973
	 H           2.1990832305       -1.7931978707        1.5804494792
	 H           1.9135499563       -1.9524171104       -1.7537751503
	 H          -0.0974027945       -3.7917391966        0.1894106944
	 O           0.0354807690        2.1097005340       -0.1037891513
	             0.0001847225        0.0000170497       -0.0000164666
	            -0.0000957934       -0.0002629472        0.0000206950
	            -0.0000452353        0.0000399374       -0.0000382449
	            -0.0000382122        0.0000436695        0.0000413257
	             0.0000656169       -0.0000912340       -0.0000012588
	            -0.0000710985        0.0002535246       -0.0000060503

	---Fragment 1 Intrafragment Coordinates---
	 - Coordinate -           - BOHR/RAD -       - ANG/DEG -
	 R(1,2)           =         2.669173	       1.412466
	 R(1,6)           =         2.449318	       1.296123
	 R(2,3)           =         2.042228	       1.080701
	 R(2,4)           =         2.042229	       1.080701
	 R(2,5)           =         2.039384	       1.079196
	 B(1,2,3)         =         1.922430	     110.147126
	 B(1,2,4)         =         1.922431	     110.147198
	 B(1,2,5)         =         1.848170	     105.892365
	 B(2,1,6)         =         1.940007	     111.154194
	 B(3,2,4)         =         1.923643	     110.216629
	 B(3,2,5)         =         1.922965	     110.177756
	 B(4,2,5)         =         1.922965	     110.177770
	 D(3,2,1,6)       =         1.062752	      60.891228
	 D(4,2,1,6)       =        -1.062743	     -60.890671
	 D(5,2,1,6)       =         3.141593	     180.000000

	Current energy   :      -189.2717302212

	Energy change for the previous step:
		Projected    :        -0.0000077689
		Actual       :        -0.0000017237
	Energy ratio indicates iffy step: Trust radius decreased to 1.250e-01.


	Performing BFGS update.
	Previous computed or guess Hessian on step 1.
	Steps to be used in Hessian update: 5 4
	Taking RFO optimization step.
	Going to follow RFO solution 1.
	Using RFO vector 1.
	Norm of target step-size    0.00145
	Projected energy change by RFO approximation:        -0.0000009216

	Back-transformation to cartesian coordinates...
	Could not converge backtransformation.
	Using first guess instead.

	--- Internal Coordinate Step in ANG or DEG, aJ/ANG or AJ/DEG ---
	 ---------------------------------------------------------------------------
	   Coordinate                Previous        Force       Change         New 
	   ----------                --------       ------       ------       ------
	    1 R(1,2)          =      1.412466    -0.000928    -0.000088     1.412377
	    2 R(1,6)          =      1.296123    -0.001667    -0.000111     1.296012
	    3 R(2,3)          =      1.080701     0.000441     0.000068     1.080769
	    4 R(2,4)          =      1.080701     0.000440     0.000068     1.080769
	    5 R(2,5)          =      1.079196    -0.000387    -0.000034     1.079162
	    6 B(1,2,3)        =    110.147126     0.000007     0.022220   110.169346
	    7 B(1,2,4)        =    110.147198     0.000007     0.022150   110.169348
	    8 B(1,2,5)        =    105.892365    -0.000015    -0.044883   105.847483
	    9 B(2,1,6)        =    111.154194    -0.000031    -0.052193   111.102001
	   10 B(3,2,4)        =    110.216629    -0.000001     0.007360   110.223989
	   11 B(3,2,5)        =    110.177756     0.000001    -0.004206   110.173551
	   12 B(4,2,5)        =    110.177770     0.000001    -0.004260   110.173510
	   13 D(3,2,1,6)      =     60.891228     0.000001     0.019126    60.910355
	   14 D(4,2,1,6)      =    -60.890671    -0.000001    -0.019360   -60.910031
	   15 D(5,2,1,6)      =    180.000000     0.000000     0.000000   180.000000
	 ---------------------------------------------------------------------------
	Successfully symmetrized geometry.

  ==> Convergence Check <==

  Measures of convergence in internal coordinates in au.
  Criteria marked as inactive (o), active & met (*), and active & unmet ( ).
  ---------------------------------------------------------------------------------------------
   Step     Total Energy     Delta E     MAX Force     RMS Force      MAX Disp      RMS Disp   
  ---------------------------------------------------------------------------------------------
    Convergence Criteria    1.00e-06 *    3.00e-04 *             o    1.20e-03 *             o
  ---------------------------------------------------------------------------------------------
      6    -189.27173022   -1.72e-06      4.13e-04      1.39e-04 o    9.11e-04 *    3.75e-04 o  ~
  ---------------------------------------------------------------------------------------------

	Writing optimization data to binary file.
	Structure for next step:
	Cartesian Geometry (in Angstrom)
	    O    -0.5112980360  -0.0623688610   0.0467657344
	    C     0.4777271525  -1.0699897971   0.0101853652
	    H     1.1638231121  -0.9488854693   0.8364219917
	    H     1.0127085660  -1.0331502921  -0.9281636133
	    H    -0.0517338816  -2.0060205651   0.1002251911
	    O     0.0189559538   1.1158246318  -0.0549099321
			--------------------------
			 OPTKING Finished Execution 
			--------------------------

    Structure for next step:
    Molecular point group: c1
    Full point group: C1

    Geometry (in Angstrom), charge = 0, multiplicity = 2:

    O           -0.511280608358    -0.062173055792     0.046754916407
    C            0.477744580170    -1.069793991853     0.010174547228
    H            1.163840539787    -0.948689664060     0.836411173673
    H            1.012725993610    -1.032954486875    -0.928174431350
    H           -0.051716453911    -2.005824759889     0.100214373105
    O            0.018973381415     1.116020437044    -0.054920750081

gradient() will perform analytic gradient computation.
   => Loading Basis Set <=

    Name: STO-3G
    Role: ORBITAL
    Keyword: BASIS
    atoms 1, 6 entry O          line    80 file /home/hrgrimsl/psi4conda/share/psi4/basis/sto-3g.gbs 
    atoms 2    entry C          line    60 file /home/hrgrimsl/psi4conda/share/psi4/basis/sto-3g.gbs 
    atoms 3-5  entry H          line    18 file /home/hrgrimsl/psi4conda/share/psi4/basis/sto-3g.gbs 


			-----------------------------------------
			 OPTKING 2.0: for geometry optimizations 
			  - R.A. King,  Bethel University        
			-----------------------------------------

	Previous internal coordinate definitions found.
	---Fragment 1 Geometry and Gradient---
	 O          -0.9661803269       -0.1174900483        0.0883539874
	 C           0.9028064180       -2.0216176632        0.0192271078
	 H           2.1993398825       -1.7927636502        1.5805880527
	 H           1.9137747756       -1.9520010879       -1.7539954788
	 H          -0.0977299345       -3.7904594668        0.1893777197
	 O           0.0358544947        2.1089729847       -0.1037851767
	            -0.0000152882        0.0000159693        0.0000006097
	             0.0000175540       -0.0000170073       -0.0000006093
	             0.0000012435       -0.0000002765        0.0000030762
	             0.0000007524       -0.0000006120       -0.0000032705
	            -0.0000011892        0.0000028122       -0.0000000884
	            -0.0000030725       -0.0000008857        0.0000002823

	---Fragment 1 Intrafragment Coordinates---
	 - Coordinate -           - BOHR/RAD -       - ANG/DEG -
	 R(1,2)           =         2.669006	       1.412377
	 R(1,6)           =         2.449108	       1.296012
	 R(2,3)           =         2.042357	       1.080769
	 R(2,4)           =         2.042357	       1.080769
	 R(2,5)           =         2.039320	       1.079162
	 B(1,2,3)         =         1.922818	     110.169346
	 B(1,2,4)         =         1.922818	     110.169348
	 B(1,2,5)         =         1.847387	     105.847483
	 B(2,1,6)         =         1.939096	     111.102001
	 B(3,2,4)         =         1.923772	     110.223989
	 B(3,2,5)         =         1.922891	     110.173551
	 B(4,2,5)         =         1.922890	     110.173510
	 D(3,2,1,6)       =         1.063086	      60.910355
	 D(4,2,1,6)       =        -1.063081	     -60.910031
	 D(5,2,1,6)       =         3.141593	     180.000000

	Current energy   :      -189.2717305723

	Energy change for the previous step:
		Projected    :        -0.0000009216
		Actual       :        -0.0000003512

	Performing BFGS update.
	Previous computed or guess Hessian on step 1.
	Steps to be used in Hessian update: 6 5
	Taking RFO optimization step.
	Going to follow RFO solution 1.
	Using RFO vector 1.
	Norm of target step-size    0.00008
	Projected energy change by RFO approximation:        -0.0000000023

	Back-transformation to cartesian coordinates...
	Could not converge backtransformation.
	Using first guess instead.

	--- Internal Coordinate Step in ANG or DEG, aJ/ANG or AJ/DEG ---
	 ---------------------------------------------------------------------------
	   Coordinate                Previous        Force       Change         New 
	   ----------                --------       ------       ------       ------
	    1 R(1,2)          =      1.412377    -0.000192    -0.000030     1.412347
	    2 R(1,6)          =      1.296012     0.000013     0.000005     1.296017
	    3 R(2,3)          =      1.080769    -0.000025    -0.000004     1.080764
	    4 R(2,4)          =      1.080769    -0.000025    -0.000005     1.080764
	    5 R(2,5)          =      1.079162     0.000014     0.000003     1.079164
	    6 B(1,2,3)        =    110.169346    -0.000000    -0.000492   110.168854
	    7 B(1,2,4)        =    110.169348    -0.000000    -0.000509   110.168839
	    8 B(1,2,5)        =    105.847483     0.000000     0.002202   105.849685
	    9 B(2,1,6)        =    111.102001    -0.000000    -0.001129   111.100873
	   10 B(3,2,4)        =    110.223989    -0.000000    -0.001130   110.222858
	   11 B(3,2,5)        =    110.173551    -0.000000     0.000009   110.173559
	   12 B(4,2,5)        =    110.173510    -0.000000     0.000042   110.173551
	   13 D(3,2,1,6)      =     60.910355    -0.000000    -0.001576    60.908778
	   14 D(4,2,1,6)      =    -60.910031     0.000000     0.000501   -60.909530
	   15 D(5,2,1,6)      =    180.000000    -0.000000     0.000000   180.000000
	 ---------------------------------------------------------------------------
	Successfully symmetrized geometry.

  ==> Convergence Check <==

  Measures of convergence in internal coordinates in au.
  Criteria marked as inactive (o), active & met (*), and active & unmet ( ).
  ---------------------------------------------------------------------------------------------
   Step     Total Energy     Delta E     MAX Force     RMS Force      MAX Disp      RMS Disp   
  ---------------------------------------------------------------------------------------------
    Convergence Criteria    1.00e-06 *    3.00e-04 *             o    1.20e-03 *             o
  ---------------------------------------------------------------------------------------------
      7    -189.27173057   -3.51e-07 *    2.33e-05 *    6.49e-06 o    5.68e-05 *    2.12e-05 o  ~
  ---------------------------------------------------------------------------------------------


  **** Optimization is complete! (in 7 steps) ****

  ==> Optimization Summary <==

  Measures of convergence in internal coordinates in au.
  --------------------------------------------------------------------------------------------------------------- ~
   Step         Total Energy             Delta E       MAX Force       RMS Force        MAX Disp        RMS Disp  ~
  --------------------------------------------------------------------------------------------------------------- ~
      1    -189.262305385298   -189.262305385298      0.06616991      0.01861080      0.14395816      0.04631875  ~
      2    -189.270804446679     -0.008499061380      0.02537986      0.00673187      0.08851318      0.02544945  ~
      3    -189.271563049059     -0.000758602381      0.01240204      0.00325575      0.03582840      0.00991527  ~
      4    -189.271705300865     -0.000142251805      0.00484879      0.00125878      0.01218197      0.00321208  ~
      5    -189.271728497420     -0.000023196555      0.00108734      0.00037852      0.00267607      0.00106589  ~
      6    -189.271730221157     -0.000001723738      0.00041252      0.00013946      0.00091094      0.00037465  ~
      7    -189.271730572330     -0.000000351173      0.00002328      0.00000649      0.00005682      0.00002119  ~
  --------------------------------------------------------------------------------------------------------------- ~

	Writing optimization data to binary file.
	Final energy is   -189.2717305723303
	Final (previous) structure:
	Cartesian Geometry (in Angstrom)
	    O    -0.5112806084  -0.0621730558   0.0467549164
	    C     0.4777445802  -1.0697939919   0.0101745472
	    H     1.1638405398  -0.9486896641   0.8364111737
	    H     1.0127259936  -1.0329544869  -0.9281744314
	    H    -0.0517164539  -2.0058247599   0.1002143731
	    O     0.0189733814   1.1160204370  -0.0549207501
	Saving final (previous) structure.
			--------------------------
			 OPTKING Finished Execution 
			--------------------------

    Final optimized geometry and variables:
    Molecular point group: c1
    Full point group: C1

    Geometry (in Angstrom), charge = 0, multiplicity = 2:

    O           -0.511280608358    -0.062173055792     0.046754916407
    C            0.477744580170    -1.069793991853     0.010174547228
    H            1.163840539787    -0.948689664060     0.836411173673
    H            1.012725993610    -1.032954486875    -0.928174431350
    H           -0.051716453911    -2.005824759889     0.100214373105
    O            0.018973381415     1.116020437044    -0.054920750081

	Cleaning optimization helper files.

*** Psi4 exiting successfully. Buy a developer a beer!
