
Host: hrgrimsl-XPS-13-9370

Timers On : Thu Dec  6 15:40:14 2018
Timers Off: Thu Dec  6 15:40:27 2018

Wall Time:       13.00 seconds


***********************************************************
