
Host: harper-XPS-13-9370

Timers On : Mon Aug 13 12:46:39 2018
Timers Off: Mon Aug 13 12:46:39 2018

Wall Time:        0.00 seconds

Total PK formation time:       0.01u       0.00s 0.01016400w      1 call
JK: D       :       0.00u       0.00s   0.000037w     12 calls
JK: USO2AO  :       0.00u       0.00s   0.000011w     12 calls
JK: JK      :       0.00u       0.00s   0.000058w     12 calls
PK computes JK:       0.00u       0.00s   0.000052w     12 calls
JK: AO2USO  :       0.00u       0.00s   0.000003w     12 calls

***********************************************************

Host: harper-XPS-13-9370

Timers On : Mon Aug 13 13:15:04 2018
Timers Off: Mon Aug 13 13:15:05 2018

Wall Time:        1.00 seconds

Total PK formation time:       0.01u       0.00s 0.00996800w      1 call
JK: D       :       0.00u       0.00s   0.000014w     12 calls
JK: USO2AO  :       0.00u       0.00s   0.000011w     12 calls
JK: JK      :       0.00u       0.00s   0.000052w     12 calls
PK computes JK:       0.00u       0.00s   0.000041w     12 calls
JK: AO2USO  :       0.00u       0.00s   0.000004w     12 calls

***********************************************************

Host: harper-XPS-13-9370

Timers On : Mon Aug 13 13:19:24 2018
Timers Off: Mon Aug 13 13:19:24 2018

Wall Time:        0.00 seconds

Total PK formation time:       0.01u       0.00s 0.00992900w      1 call
JK: D       :       0.00u       0.00s   0.000015w     12 calls
JK: USO2AO  :       0.00u       0.00s   0.000012w     12 calls
JK: JK      :       0.00u       0.00s   0.000054w     12 calls
PK computes JK:       0.00u       0.00s   0.000044w     12 calls
JK: AO2USO  :       0.00u       0.00s   0.000005w     12 calls

***********************************************************

Host: harper-XPS-13-9370

Timers On : Mon Aug 13 13:20:09 2018
Timers Off: Mon Aug 13 13:20:09 2018

Wall Time:        0.00 seconds

Total PK formation time:       0.01u       0.00s 0.01010100w      1 call
JK: D       :       0.00u       0.00s   0.000013w     12 calls
JK: USO2AO  :       0.00u       0.00s   0.000012w     12 calls
JK: JK      :       0.00u       0.00s   0.000051w     12 calls
PK computes JK:       0.00u       0.00s   0.000040w     12 calls
JK: AO2USO  :       0.00u       0.00s   0.000004w     12 calls

***********************************************************

Host: harper-XPS-13-9370

Timers On : Mon Aug 13 13:20:38 2018
Timers Off: Mon Aug 13 13:20:38 2018

Wall Time:        0.00 seconds

Total PK formation time:       0.01u       0.00s 0.01017100w      1 call
JK: D       :       0.00u       0.00s   0.000017w     12 calls
JK: USO2AO  :       0.00u       0.00s   0.000012w     12 calls
JK: JK      :       0.00u       0.00s   0.000054w     12 calls
PK computes JK:       0.00u       0.00s   0.000045w     12 calls
JK: AO2USO  :       0.00u       0.00s   0.000007w     12 calls

***********************************************************

Host: harper-XPS-13-9370

Timers On : Mon Aug 13 13:21:15 2018
Timers Off: Mon Aug 13 13:21:15 2018

Wall Time:        0.00 seconds

Total PK formation time:       0.01u       0.00s 0.00954100w      1 call
JK: D       :       0.00u       0.00s   0.000013w     12 calls
JK: USO2AO  :       0.00u       0.00s   0.000011w     12 calls
JK: JK      :       0.00u       0.00s   0.000049w     12 calls
PK computes JK:       0.00u       0.00s   0.000039w     12 calls
JK: AO2USO  :       0.00u       0.00s   0.000004w     12 calls

***********************************************************

Host: harper-XPS-13-9370

Timers On : Mon Aug 13 13:22:08 2018
Timers Off: Mon Aug 13 13:22:09 2018

Wall Time:        1.00 seconds

Total PK formation time:       0.01u       0.00s 0.00968100w      1 call
JK: D       :       0.00u       0.00s   0.000013w     12 calls
JK: USO2AO  :       0.00u       0.00s   0.000008w     12 calls
JK: JK      :       0.00u       0.00s   0.000047w     12 calls
PK computes JK:       0.00u       0.00s   0.000038w     12 calls
JK: AO2USO  :       0.00u       0.00s   0.000005w     12 calls

***********************************************************

Host: harper-XPS-13-9370

Timers On : Mon Aug 13 13:22:48 2018
Timers Off: Mon Aug 13 13:22:58 2018

Wall Time:       10.00 seconds

JK: (A|mn)  :       1.88u       0.00s   1.883124w      3 calls
JK: (A|Q)^-1/2:       0.47u       0.02s   0.511503w      3 calls
JK: (Q|mn)  :       0.70u       0.00s   0.694869w      3 calls
HF: Form H  :       0.00u       0.00s 0.02778600w      1 call
HF: Form S/X:       0.00u       0.00s 0.00366400w      1 call
HF: Guess   :       0.06u       0.00s 0.05435700w      1 call
SAD Guess   :       0.06u       0.00s 0.05235300w      1 call
JK: D       :       0.00u       0.00s   0.000731w     19 calls
JK: USO2AO  :       0.00u       0.00s   0.000176w     19 calls
JK: JK      :       5.85u       0.15s   5.989578w     19 calls
JK: J       :       0.12u       0.02s   0.122587w     19 calls
JK: J1      :       0.07u       0.02s   0.061075w     28 calls
JK: J2      :       0.05u       0.00s   0.060532w     28 calls
JK: K       :       5.68u       0.00s   5.687117w     19 calls
JK: K1      :       5.11u       0.00s   5.117313w     26 calls
JK: K2      :       0.57u       0.00s   0.569558w     26 calls
JK: AO2USO  :       0.00u       0.00s   0.000018w     19 calls
DIISManager::add_entry:       0.00u       0.00s   0.002577w     18 calls
DIISManager::extrapolate:       0.02u       0.00s   0.004548w     17 calls
DIISManager::extrapolate: bMatrix setup:       0.00u       0.00s   0.001960w     17 calls
DIISManager::extrapolate: bMatrix pseudoinverse:       0.00u       0.00s   0.000374w     17 calls
DIISManager::extrapolate: form new data:       0.02u       0.00s   0.002151w     17 calls
HF: Form G  :       5.85u       0.15s   5.990460w     10 calls
HF: Form F  :       0.00u       0.00s   0.000425w     10 calls
HF: DIIS    :       0.01u       0.01s   0.016883w     10 calls
HF: Form C  :       0.02u       0.00s   0.036004w     10 calls
HF: Form D  :       0.00u       0.00s   0.000595w     10 calls

***********************************************************

Host: harper-XPS-13-9370

Timers On : Mon Aug 13 13:22:59 2018
Timers Off: Mon Aug 13 13:23:00 2018

Wall Time:        1.00 seconds

JK: (A|mn)  :       0.04u       0.00s   0.046509w      3 calls
JK: (A|Q)^-1/2:       0.03u       0.00s   0.054175w      3 calls
JK: (Q|mn)  :       0.01u       0.00s   0.003915w      3 calls
HF: Form H  :       0.00u       0.00s 0.00055500w      1 call
HF: Form S/X:       0.00u       0.00s 0.00021700w      1 call
HF: Guess   :       0.04u       0.00s 0.04057800w      1 call
SAD Guess   :       0.04u       0.00s 0.03904100w      1 call
JK: D       :       0.00u       0.00s   0.000067w     21 calls
JK: USO2AO  :       0.00u       0.00s   0.000043w     21 calls
JK: JK      :       0.02u       0.00s   0.021839w     21 calls
JK: J       :       0.00u       0.00s   0.001249w     21 calls
JK: J1      :       0.00u       0.00s   0.000598w     30 calls
JK: J2      :       0.00u       0.00s   0.000559w     30 calls
JK: K       :       0.02u       0.00s   0.020133w     21 calls
JK: K1      :       0.02u       0.00s   0.016636w     28 calls
JK: K2      :       0.00u       0.00s   0.003427w     28 calls
JK: AO2USO  :       0.00u       0.00s   0.000014w     21 calls
DIISManager::add_entry:       0.00u       0.00s   0.000544w     20 calls
DIISManager::extrapolate:       0.00u       0.00s   0.000927w     19 calls
DIISManager::extrapolate: bMatrix setup:       0.00u       0.00s   0.000304w     19 calls
DIISManager::extrapolate: bMatrix pseudoinverse:       0.00u       0.00s   0.000243w     19 calls
DIISManager::extrapolate: form new data:       0.00u       0.00s   0.000309w     19 calls
HF: Form G  :       0.02u       0.00s   0.021602w     12 calls
HF: Form F  :       0.00u       0.00s   0.000029w     12 calls
HF: DIIS    :       0.00u       0.00s   0.001663w     12 calls
HF: Form C  :       0.00u       0.00s   0.002021w     12 calls
HF: Form D  :       0.00u       0.00s   0.000039w     12 calls
DFMP2 Singles:       0.00u       0.00s 0.00004100w      1 call
DFMP2 Aia   :       0.03u       0.00s 0.02962400w      1 call
DFMP2 (A|mn):       0.02u       0.00s 0.01530100w      1 call
DFMP2 (A|mn)C_mi:       0.00u       0.00s 0.00026700w      1 call
DFMP2 (A|mi)C_na:       0.00u       0.00s 0.00015800w      1 call
DFMP2 Aia Write:       0.00u       0.00s 0.00018300w      1 call
DFMP2 Qia   :       0.01u       0.00s 0.01236900w      1 call
DFMP2 Metric:       0.01u       0.00s 0.01136700w      1 call
DFMP2 Aia Read:       0.00u       0.00s 0.00023000w      1 call
DFMP2 (Q|A)(A|ia):       0.00u       0.00s 0.00043800w      1 call
DFMP2 Qia Write:       0.00u       0.00s 0.00017500w      1 call
DFMP2 Energy:       0.00u       0.00s 0.00085000w      1 call
DFMP2 Qia Read:       0.00u       0.00s   0.000052w      2 calls

***********************************************************

Host: harper-XPS-13-9370

Timers On : Mon Aug 13 13:23:00 2018
Timers Off: Mon Aug 13 13:23:01 2018

Wall Time:        1.00 seconds

JK: (A|mn)  :       0.01u       0.00s   0.009505w      3 calls
JK: (A|Q)^-1/2:       0.03u       0.00s   0.024797w      3 calls
JK: (Q|mn)  :       0.01u       0.00s   0.000495w      3 calls
HF: Form H  :       0.00u       0.00s 0.00034400w      1 call
HF: Form S/X:       0.00u       0.00s 0.00009000w      1 call
HF: Guess   :       0.04u       0.00s 0.04061100w      1 call
SAD Guess   :       0.04u       0.00s 0.03908800w      1 call
JK: D       :       0.00u       0.00s   0.000052w     20 calls
JK: USO2AO  :       0.00u       0.00s   0.000030w     20 calls
JK: JK      :       0.00u       0.00s   0.003172w     20 calls
JK: J       :       0.00u       0.00s   0.000260w     20 calls
JK: J1      :       0.00u       0.00s   0.000111w     29 calls
JK: J2      :       0.00u       0.00s   0.000089w     29 calls
JK: K       :       0.00u       0.00s   0.002742w     20 calls
JK: K1      :       0.00u       0.00s   0.002207w     27 calls
JK: K2      :       0.00u       0.00s   0.000495w     27 calls
JK: AO2USO  :       0.00u       0.00s   0.000015w     20 calls
DIISManager::add_entry:       0.00u       0.00s   0.000341w     19 calls
DIISManager::extrapolate:       0.00u       0.00s   0.000570w     18 calls
DIISManager::extrapolate: bMatrix setup:       0.00u       0.00s   0.000174w     18 calls
DIISManager::extrapolate: bMatrix pseudoinverse:       0.00u       0.00s   0.000195w     18 calls
DIISManager::extrapolate: form new data:       0.00u       0.00s   0.000145w     18 calls
HF: Form G  :       0.00u       0.00s   0.002854w     11 calls
HF: Form F  :       0.00u       0.00s   0.000016w     11 calls
HF: DIIS    :       0.00u       0.00s   0.000869w     11 calls
HF: Form C  :       0.00u       0.00s   0.000621w     11 calls
HF: Form D  :       0.00u       0.00s   0.000019w     11 calls
DFMP2 Singles:       0.00u       0.00s 0.00002100w      1 call
DFMP2 Aia   :       0.01u       0.00s 0.01571900w      1 call
DFMP2 (A|mn):       0.00u       0.00s 0.00290500w      1 call
DFMP2 (A|mn)C_mi:       0.00u       0.00s 0.00004000w      1 call
DFMP2 (A|mi)C_na:       0.00u       0.00s 0.00002700w      1 call
DFMP2 Aia Write:       0.00u       0.00s 0.00003900w      1 call
DFMP2 Qia   :       0.01u       0.00s 0.00834800w      1 call
DFMP2 Metric:       0.01u       0.00s 0.00805000w      1 call
DFMP2 Aia Read:       0.00u       0.00s 0.00010200w      1 call
DFMP2 (Q|A)(A|ia):       0.00u       0.00s 0.00005100w      1 call
DFMP2 Qia Write:       0.00u       0.00s 0.00003900w      1 call
DFMP2 Energy:       0.00u       0.00s 0.00015900w      1 call
DFMP2 Qia Read:       0.00u       0.00s   0.000012w      2 calls

***********************************************************

Host: harper-XPS-13-9370

Timers On : Mon Aug 13 13:23:01 2018
Timers Off: Mon Aug 13 13:23:01 2018

Wall Time:        0.00 seconds

JK: (A|mn)  :       0.01u       0.00s   0.008505w      3 calls
JK: (A|Q)^-1/2:       0.03u       0.00s   0.025393w      3 calls
JK: (Q|mn)  :       0.00u       0.00s   0.000486w      3 calls
HF: Form H  :       0.00u       0.00s 0.00031000w      1 call
HF: Form S/X:       0.00u       0.00s 0.00008200w      1 call
HF: Guess   :       0.05u       0.00s 0.04328100w      1 call
SAD Guess   :       0.05u       0.00s 0.04177500w      1 call
JK: D       :       0.00u       0.00s   0.000061w     19 calls
JK: USO2AO  :       0.00u       0.00s   0.000034w     19 calls
JK: JK      :       0.00u       0.00s   0.003091w     19 calls
JK: J       :       0.00u       0.00s   0.000257w     19 calls
JK: J1      :       0.00u       0.00s   0.000120w     28 calls
JK: J2      :       0.00u       0.00s   0.000087w     28 calls
JK: K       :       0.00u       0.00s   0.002650w     19 calls
JK: K1      :       0.00u       0.00s   0.002108w     26 calls
JK: K2      :       0.00u       0.00s   0.000503w     26 calls
JK: AO2USO  :       0.00u       0.00s   0.000010w     19 calls
DIISManager::add_entry:       0.00u       0.00s   0.000362w     18 calls
DIISManager::extrapolate:       0.00u       0.00s   0.000557w     17 calls
DIISManager::extrapolate: bMatrix setup:       0.00u       0.00s   0.000171w     17 calls
DIISManager::extrapolate: bMatrix pseudoinverse:       0.00u       0.00s   0.000191w     17 calls
DIISManager::extrapolate: form new data:       0.00u       0.00s   0.000139w     17 calls
HF: Form G  :       0.00u       0.00s   0.002725w     10 calls
HF: Form F  :       0.00u       0.00s   0.000017w     10 calls
HF: DIIS    :       0.00u       0.00s   0.000891w     10 calls
HF: Form C  :       0.00u       0.00s   0.000594w     10 calls
HF: Form D  :       0.00u       0.00s   0.000019w     10 calls
DFMP2 Singles:       0.00u       0.00s 0.00004500w      1 call
DFMP2 Aia   :       0.02u       0.00s 0.01702300w      1 call
DFMP2 (A|mn):       0.01u       0.00s 0.00315900w      1 call
DFMP2 (A|mn)C_mi:       0.00u       0.00s 0.00006100w      1 call
DFMP2 (A|mi)C_na:       0.00u       0.00s 0.00003400w      1 call
DFMP2 Aia Write:       0.00u       0.00s 0.00005900w      1 call
DFMP2 Qia   :       0.01u       0.00s 0.00919300w      1 call
DFMP2 Metric:       0.01u       0.00s 0.00880800w      1 call
DFMP2 Aia Read:       0.00u       0.00s 0.00010500w      1 call
DFMP2 (Q|A)(A|ia):       0.00u       0.00s 0.00005200w      1 call
DFMP2 Qia Write:       0.00u       0.00s 0.00004300w      1 call
DFMP2 Energy:       0.00u       0.00s 0.00017300w      1 call
DFMP2 Qia Read:       0.00u       0.00s   0.000014w      2 calls

***********************************************************

Host: harper-XPS-13-9370

Timers On : Mon Aug 13 13:23:01 2018
Timers Off: Mon Aug 13 13:23:02 2018

Wall Time:        1.00 seconds

JK: (A|mn)  :       0.00u       0.00s   0.008343w      3 calls
JK: (A|Q)^-1/2:       0.03u       0.00s   0.025002w      3 calls
JK: (Q|mn)  :       0.00u       0.00s   0.000510w      3 calls
HF: Form H  :       0.00u       0.00s 0.00034100w      1 call
HF: Form S/X:       0.00u       0.00s 0.00008900w      1 call
HF: Guess   :       0.04u       0.00s 0.04338700w      1 call
SAD Guess   :       0.04u       0.00s 0.04176200w      1 call
JK: D       :       0.00u       0.00s   0.000056w     20 calls
JK: USO2AO  :       0.00u       0.00s   0.000033w     20 calls
JK: JK      :       0.00u       0.00s   0.003159w     20 calls
JK: J       :       0.00u       0.00s   0.000284w     20 calls
JK: J1      :       0.00u       0.00s   0.000134w     29 calls
JK: J2      :       0.00u       0.00s   0.000103w     29 calls
JK: K       :       0.00u       0.00s   0.002699w     20 calls
JK: K1      :       0.00u       0.00s   0.002168w     27 calls
JK: K2      :       0.00u       0.00s   0.000494w     27 calls
JK: AO2USO  :       0.00u       0.00s   0.000013w     20 calls
DIISManager::add_entry:       0.00u       0.00s   0.000356w     19 calls
DIISManager::extrapolate:       0.00u       0.00s   0.000576w     18 calls
DIISManager::extrapolate: bMatrix setup:       0.00u       0.00s   0.000177w     18 calls
DIISManager::extrapolate: bMatrix pseudoinverse:       0.00u       0.00s   0.000199w     18 calls
DIISManager::extrapolate: form new data:       0.00u       0.00s   0.000148w     18 calls
HF: Form G  :       0.00u       0.00s   0.002825w     11 calls
HF: Form F  :       0.00u       0.00s   0.000016w     11 calls
HF: DIIS    :       0.00u       0.00s   0.000891w     11 calls
HF: Form C  :       0.00u       0.00s   0.000623w     11 calls
HF: Form D  :       0.00u       0.00s   0.000021w     11 calls
DFMP2 Singles:       0.00u       0.00s 0.00002200w      1 call
DFMP2 Aia   :       0.02u       0.00s 0.01510100w      1 call
DFMP2 (A|mn):       0.01u       0.00s 0.00283700w      1 call
DFMP2 (A|mn)C_mi:       0.00u       0.00s 0.00003700w      1 call
DFMP2 (A|mi)C_na:       0.00u       0.00s 0.00002600w      1 call
DFMP2 Aia Write:       0.00u       0.00s 0.00003500w      1 call
DFMP2 Qia   :       0.00u       0.00s 0.00843500w      1 call
DFMP2 Metric:       0.00u       0.00s 0.00806400w      1 call
DFMP2 Aia Read:       0.00u       0.00s 0.00010900w      1 call
DFMP2 (Q|A)(A|ia):       0.00u       0.00s 0.00005200w      1 call
DFMP2 Qia Write:       0.00u       0.00s 0.00006900w      1 call
DFMP2 Energy:       0.00u       0.00s 0.00016400w      1 call
DFMP2 Qia Read:       0.00u       0.00s   0.000011w      2 calls

***********************************************************

Host: harper-XPS-13-9370

Timers On : Mon Aug 13 13:23:02 2018
Timers Off: Mon Aug 13 13:23:02 2018

Wall Time:        0.00 seconds

JK: (A|mn)  :       0.01u       0.00s   0.008534w      3 calls
JK: (A|Q)^-1/2:       0.02u       0.00s   0.025254w      3 calls
JK: (Q|mn)  :       0.00u       0.00s   0.000492w      3 calls
HF: Form H  :       0.00u       0.00s 0.00048800w      1 call
HF: Form S/X:       0.00u       0.00s 0.00008900w      1 call
HF: Guess   :       0.04u       0.00s 0.04306400w      1 call
SAD Guess   :       0.04u       0.00s 0.04143600w      1 call
JK: D       :       0.00u       0.00s   0.000060w     19 calls
JK: USO2AO  :       0.00u       0.00s   0.000029w     19 calls
JK: JK      :       0.00u       0.00s   0.003107w     19 calls
JK: J       :       0.00u       0.00s   0.000275w     19 calls
JK: J1      :       0.00u       0.00s   0.000133w     28 calls
JK: J2      :       0.00u       0.00s   0.000094w     28 calls
JK: K       :       0.00u       0.00s   0.002643w     19 calls
JK: K1      :       0.00u       0.00s   0.002083w     26 calls
JK: K2      :       0.00u       0.00s   0.000508w     26 calls
JK: AO2USO  :       0.00u       0.00s   0.000012w     19 calls
DIISManager::add_entry:       0.00u       0.00s   0.000341w     18 calls
DIISManager::extrapolate:       0.00u       0.00s   0.000514w     17 calls
DIISManager::extrapolate: bMatrix setup:       0.00u       0.00s   0.000147w     17 calls
DIISManager::extrapolate: bMatrix pseudoinverse:       0.00u       0.00s   0.000185w     17 calls
DIISManager::extrapolate: form new data:       0.00u       0.00s   0.000141w     17 calls
HF: Form G  :       0.00u       0.00s   0.002653w     10 calls
HF: Form F  :       0.00u       0.00s   0.000014w     10 calls
HF: DIIS    :       0.00u       0.00s   0.000773w     10 calls
HF: Form C  :       0.01u       0.00s   0.000571w     10 calls
HF: Form D  :       0.00u       0.00s   0.000019w     10 calls
DFMP2 Singles:       0.00u       0.00s 0.00002400w      1 call
DFMP2 Aia   :       0.02u       0.00s 0.01626600w      1 call
DFMP2 (A|mn):       0.00u       0.00s 0.00301500w      1 call
DFMP2 (A|mn)C_mi:       0.00u       0.00s 0.00004000w      1 call
DFMP2 (A|mi)C_na:       0.00u       0.00s 0.00002800w      1 call
DFMP2 Aia Write:       0.00u       0.00s 0.00004000w      1 call
DFMP2 Qia   :       0.01u       0.00s 0.00878800w      1 call
DFMP2 Metric:       0.01u       0.00s 0.00846200w      1 call
DFMP2 Aia Read:       0.00u       0.00s 0.00011400w      1 call
DFMP2 (Q|A)(A|ia):       0.00u       0.00s 0.00005500w      1 call
DFMP2 Qia Write:       0.00u       0.00s 0.00004300w      1 call
DFMP2 Energy:       0.00u       0.00s 0.00017500w      1 call
DFMP2 Qia Read:       0.00u       0.00s   0.000014w      2 calls

***********************************************************

Host: harper-XPS-13-9370

Timers On : Mon Aug 13 13:23:02 2018
Timers Off: Mon Aug 13 13:23:04 2018

Wall Time:        2.00 seconds

JK: (A|mn)  :       0.31u       0.00s   0.310220w      3 calls
JK: (A|Q)^-1/2:       0.10u       0.00s   0.122260w      3 calls
JK: (Q|mn)  :       0.07u       0.00s   0.065644w      3 calls
HF: Form H  :       0.00u       0.00s 0.02769700w      1 call
HF: Form S/X:       0.00u       0.00s 0.00083400w      1 call
HF: Guess   :       0.04u       0.00s 0.04192000w      1 call
SAD Guess   :       0.04u       0.00s 0.04023300w      1 call
JK: D       :       0.00u       0.00s   0.000329w     23 calls
JK: USO2AO  :       0.00u       0.00s   0.000112w     23 calls
JK: JK      :       0.58u       0.01s   0.581791w     23 calls
JK: J       :       0.04u       0.00s   0.030934w     23 calls
JK: J1      :       0.02u       0.00s   0.015814w     32 calls
JK: J2      :       0.02u       0.00s   0.014693w     32 calls
JK: K       :       0.52u       0.00s   0.541591w     23 calls
JK: K1      :       0.42u       0.00s   0.438849w     30 calls
JK: K2      :       0.10u       0.00s   0.102551w     30 calls
JK: AO2USO  :       0.00u       0.00s   0.000022w     23 calls
DIISManager::add_entry:       0.00u       0.00s   0.001874w     22 calls
DIISManager::extrapolate:       0.02u       0.00s   0.004093w     21 calls
DIISManager::extrapolate: bMatrix setup:       0.00u       0.00s   0.001661w     21 calls
DIISManager::extrapolate: bMatrix pseudoinverse:       0.00u       0.00s   0.000585w     21 calls
DIISManager::extrapolate: form new data:       0.02u       0.00s   0.001759w     21 calls
HF: Form G  :       0.58u       0.01s   0.582258w     14 calls
HF: Form F  :       0.00u       0.00s   0.000255w     14 calls
HF: DIIS    :       0.02u       0.00s   0.009688w     14 calls
HF: Form C  :       0.01u       0.00s   0.016553w     14 calls
HF: Form D  :       0.00u       0.00s   0.000274w     14 calls
DFMP2 Singles:       0.00u       0.00s 0.00017400w      1 call
DFMP2 Aia   :       0.15u       0.01s 0.15336100w      1 call
DFMP2 (A|mn):       0.12u       0.00s 0.11415200w      1 call
DFMP2 (A|mn)C_mi:       0.00u       0.00s 0.00609400w      1 call
DFMP2 (A|mi)C_na:       0.01u       0.00s 0.00295600w      1 call
DFMP2 Aia Write:       0.00u       0.01s 0.00187700w      1 call
DFMP2 Qia   :       0.04u       0.00s 0.04181600w      1 call
DFMP2 Metric:       0.02u       0.00s 0.03071800w      1 call
DFMP2 Aia Read:       0.00u       0.00s 0.00094900w      1 call
DFMP2 (Q|A)(A|ia):       0.00u       0.00s 0.00813900w      1 call
DFMP2 Qia Write:       0.01u       0.00s 0.00153100w      1 call
DFMP2 Energy:       0.01u       0.00s 0.02255600w      1 call
DFMP2 Qia Read:       0.00u       0.00s   0.000921w      2 calls

***********************************************************

Host: harper-XPS-13-9370

Timers On : Mon Aug 13 13:23:04 2018
Timers Off: Mon Aug 13 13:23:05 2018

Wall Time:        1.00 seconds

JK: (A|mn)  :       0.01u       0.00s   0.008372w      3 calls
JK: (A|Q)^-1/2:       0.01u       0.00s   0.044045w      3 calls
JK: (Q|mn)  :       0.00u       0.00s   0.000536w      3 calls
HF: Form H  :       0.00u       0.00s 0.00044500w      1 call
HF: Form S/X:       0.00u       0.00s 0.00013300w      1 call
HF: Guess   :       0.04u       0.00s 0.04249000w      1 call
SAD Guess   :       0.04u       0.00s 0.04074300w      1 call
JK: D       :       0.00u       0.00s   0.000056w     20 calls
JK: USO2AO  :       0.00u       0.00s   0.000035w     20 calls
JK: JK      :       0.02u       0.00s   0.003195w     20 calls
JK: J       :       0.00u       0.00s   0.000282w     20 calls
JK: J1      :       0.00u       0.00s   0.000137w     29 calls
JK: J2      :       0.00u       0.00s   0.000093w     29 calls
JK: K       :       0.02u       0.00s   0.002734w     20 calls
JK: K1      :       0.02u       0.00s   0.002194w     27 calls
JK: K2      :       0.00u       0.00s   0.000493w     27 calls
JK: AO2USO  :       0.00u       0.00s   0.000010w     20 calls
DIISManager::add_entry:       0.00u       0.00s   0.000348w     19 calls
DIISManager::extrapolate:       0.00u       0.00s   0.000581w     18 calls
DIISManager::extrapolate: bMatrix setup:       0.00u       0.00s   0.000178w     18 calls
DIISManager::extrapolate: bMatrix pseudoinverse:       0.00u       0.00s   0.000202w     18 calls
DIISManager::extrapolate: form new data:       0.00u       0.00s   0.000153w     18 calls
HF: Form G  :       0.01u       0.00s   0.002858w     11 calls
HF: Form F  :       0.00u       0.00s   0.000017w     11 calls
HF: DIIS    :       0.00u       0.00s   0.000885w     11 calls
HF: Form C  :       0.00u       0.00s   0.000656w     11 calls
HF: Form D  :       0.00u       0.00s   0.000023w     11 calls
DFMP2 Singles:       0.00u       0.00s 0.00003600w      1 call
DFMP2 Aia   :       0.01u       0.00s 0.01543800w      1 call
DFMP2 (A|mn):       0.00u       0.00s 0.00304100w      1 call
DFMP2 (A|mn)C_mi:       0.00u       0.00s 0.00003700w      1 call
DFMP2 (A|mi)C_na:       0.00u       0.00s 0.00002800w      1 call
DFMP2 Aia Write:       0.00u       0.00s 0.00003800w      1 call
DFMP2 Qia   :       0.01u       0.00s 0.00833200w      1 call
DFMP2 Metric:       0.01u       0.00s 0.00797300w      1 call
DFMP2 Aia Read:       0.00u       0.00s 0.00010800w      1 call
DFMP2 (Q|A)(A|ia):       0.00u       0.00s 0.00005000w      1 call
DFMP2 Qia Write:       0.00u       0.00s 0.00006000w      1 call
DFMP2 Energy:       0.00u       0.00s 0.00020300w      1 call
DFMP2 Qia Read:       0.00u       0.00s   0.000012w      2 calls

***********************************************************

Host: harper-XPS-13-9370

Timers On : Mon Aug 13 13:23:05 2018
Timers Off: Mon Aug 13 13:23:08 2018

Wall Time:        3.00 seconds

JK: (A|mn)  :       0.55u       0.00s   0.549533w      3 calls
JK: (A|Q)^-1/2:       0.16u       0.01s   0.182933w      3 calls
JK: (Q|mn)  :       0.13u       0.00s   0.129911w      3 calls
HF: Form H  :       0.00u       0.00s 0.02859200w      1 call
HF: Form S/X:       0.00u       0.01s 0.00451300w      1 call
HF: Guess   :       0.06u       0.00s 0.06094800w      1 call
SAD Guess   :       0.05u       0.00s 0.05514300w      1 call
JK: D       :       0.00u       0.00s   0.000384w     23 calls
JK: USO2AO  :       0.00u       0.00s   0.000126w     23 calls
JK: JK      :       1.04u       0.01s   1.032088w     23 calls
JK: J       :       0.05u       0.00s   0.050658w     23 calls
JK: J1      :       0.01u       0.00s   0.025367w     32 calls
JK: J2      :       0.04u       0.00s   0.024706w     32 calls
JK: K       :       0.97u       0.00s   0.962110w     23 calls
JK: K1      :       0.79u       0.00s   0.794686w     30 calls
JK: K2      :       0.17u       0.00s   0.167190w     30 calls
JK: AO2USO  :       0.00u       0.00s   0.000020w     23 calls
DIISManager::add_entry:       0.00u       0.00s   0.002035w     22 calls
DIISManager::extrapolate:       0.00u       0.00s   0.004534w     21 calls
DIISManager::extrapolate: bMatrix setup:       0.00u       0.00s   0.001902w     21 calls
DIISManager::extrapolate: bMatrix pseudoinverse:       0.00u       0.00s   0.000533w     21 calls
DIISManager::extrapolate: form new data:       0.00u       0.00s   0.002010w     21 calls
HF: Form G  :       1.04u       0.01s   1.032738w     14 calls
HF: Form F  :       0.00u       0.00s   0.000332w     14 calls
HF: DIIS    :       0.00u       0.00s   0.011308w     14 calls
HF: Form C  :       0.02u       0.00s   0.019528w     14 calls
HF: Form D  :       0.00u       0.00s   0.000308w     14 calls
DFMP2 Singles:       0.01u       0.00s 0.00020000w      1 call
DFMP2 Aia   :       0.24u       0.02s 0.25700400w      1 call
DFMP2 (A|mn):       0.20u       0.00s 0.19899800w      1 call
DFMP2 (A|mn)C_mi:       0.01u       0.00s 0.01169900w      1 call
DFMP2 (A|mi)C_na:       0.01u       0.00s 0.00654000w      1 call
DFMP2 Aia Write:       0.00u       0.01s 0.00330300w      1 call
DFMP2 Qia   :       0.07u       0.00s 0.07371500w      1 call
DFMP2 Metric:       0.05u       0.00s 0.04996400w      1 call
DFMP2 Aia Read:       0.00u       0.00s 0.00173700w      1 call
DFMP2 (Q|A)(A|ia):       0.02u       0.00s 0.01729600w      1 call
DFMP2 Qia Write:       0.00u       0.00s 0.00396900w      1 call
DFMP2 Energy:       0.05u       0.00s 0.05699800w      1 call
DFMP2 Qia Read:       0.00u       0.00s   0.001695w      2 calls

***********************************************************

Host: harper-XPS-13-9370

Timers On : Mon Aug 13 13:23:08 2018
Timers Off: Mon Aug 13 13:23:08 2018

Wall Time:        0.00 seconds

JK: (A|mn)  :       0.01u       0.00s   0.008318w      3 calls
JK: (A|Q)^-1/2:       0.03u       0.00s   0.041726w      3 calls
JK: (Q|mn)  :       0.00u       0.00s   0.000532w      3 calls
HF: Form H  :       0.00u       0.00s 0.00040500w      1 call
HF: Form S/X:       0.00u       0.00s 0.00010900w      1 call
HF: Guess   :       0.05u       0.00s 0.04201800w      1 call
SAD Guess   :       0.04u       0.00s 0.04032100w      1 call
JK: D       :       0.00u       0.00s   0.000051w     20 calls
JK: USO2AO  :       0.00u       0.00s   0.000030w     20 calls
JK: JK      :       0.00u       0.00s   0.003161w     20 calls
JK: J       :       0.00u       0.00s   0.000281w     20 calls
JK: J1      :       0.00u       0.00s   0.000131w     29 calls
JK: J2      :       0.00u       0.00s   0.000098w     29 calls
JK: K       :       0.00u       0.00s   0.002708w     20 calls
JK: K1      :       0.00u       0.00s   0.002155w     27 calls
JK: K2      :       0.00u       0.00s   0.000518w     27 calls
JK: AO2USO  :       0.00u       0.00s   0.000008w     20 calls
DIISManager::add_entry:       0.00u       0.00s   0.000351w     19 calls
DIISManager::extrapolate:       0.00u       0.00s   0.000570w     18 calls
DIISManager::extrapolate: bMatrix setup:       0.00u       0.00s   0.000177w     18 calls
DIISManager::extrapolate: bMatrix pseudoinverse:       0.00u       0.00s   0.000193w     18 calls
DIISManager::extrapolate: form new data:       0.00u       0.00s   0.000151w     18 calls
HF: Form G  :       0.00u       0.00s   0.002842w     11 calls
HF: Form F  :       0.00u       0.00s   0.000016w     11 calls
HF: DIIS    :       0.00u       0.00s   0.000884w     11 calls
HF: Form C  :       0.00u       0.00s   0.000626w     11 calls
HF: Form D  :       0.00u       0.00s   0.000020w     11 calls
DFMP2 Singles:       0.00u       0.00s 0.00002200w      1 call
DFMP2 Aia   :       0.01u       0.00s 0.01513300w      1 call
DFMP2 (A|mn):       0.00u       0.00s 0.00282900w      1 call
DFMP2 (A|mn)C_mi:       0.00u       0.00s 0.00003800w      1 call
DFMP2 (A|mi)C_na:       0.00u       0.00s 0.00002700w      1 call
DFMP2 Aia Write:       0.00u       0.00s 0.00003600w      1 call
DFMP2 Qia   :       0.01u       0.00s 0.00843000w      1 call
DFMP2 Metric:       0.01u       0.00s 0.00787800w      1 call
DFMP2 Aia Read:       0.00u       0.00s 0.00010200w      1 call
DFMP2 (Q|A)(A|ia):       0.00u       0.00s 0.00005000w      1 call
DFMP2 Qia Write:       0.00u       0.00s 0.00004000w      1 call
DFMP2 Energy:       0.00u       0.00s 0.00015900w      1 call
DFMP2 Qia Read:       0.00u       0.00s   0.000011w      2 calls

***********************************************************

Host: harper-XPS-13-9370

Timers On : Mon Aug 13 13:23:08 2018
Timers Off: Mon Aug 13 13:23:09 2018

Wall Time:        1.00 seconds

JK: (A|mn)  :       0.04u       0.00s   0.041755w      3 calls
JK: (A|Q)^-1/2:       0.04u       0.00s   0.036755w      3 calls
JK: (Q|mn)  :       0.01u       0.00s   0.004179w      3 calls
HF: Form H  :       0.00u       0.00s 0.00082100w      1 call
HF: Form S/X:       0.00u       0.00s 0.00022300w      1 call
HF: Guess   :       0.04u       0.00s 0.04109100w      1 call
SAD Guess   :       0.04u       0.00s 0.03956400w      1 call
JK: D       :       0.00u       0.00s   0.000077w     20 calls
JK: USO2AO  :       0.00u       0.00s   0.000056w     20 calls
JK: JK      :       0.02u       0.00s   0.027927w     20 calls
JK: J       :       0.00u       0.00s   0.002797w     20 calls
JK: J1      :       0.00u       0.00s   0.001442w     29 calls
JK: J2      :       0.00u       0.00s   0.001276w     29 calls
JK: K       :       0.02u       0.00s   0.024485w     20 calls
JK: K1      :       0.01u       0.00s   0.020363w     27 calls
JK: K2      :       0.01u       0.00s   0.004024w     27 calls
JK: AO2USO  :       0.00u       0.00s   0.000013w     20 calls
DIISManager::add_entry:       0.00u       0.00s   0.000741w     19 calls
DIISManager::extrapolate:       0.00u       0.00s   0.001032w     18 calls
DIISManager::extrapolate: bMatrix setup:       0.00u       0.00s   0.000311w     18 calls
DIISManager::extrapolate: bMatrix pseudoinverse:       0.00u       0.00s   0.000316w     18 calls
DIISManager::extrapolate: form new data:       0.00u       0.00s   0.000351w     18 calls
HF: Form G  :       0.02u       0.00s   0.027794w     11 calls
HF: Form F  :       0.00u       0.00s   0.000078w     11 calls
HF: DIIS    :       0.00u       0.00s   0.002130w     11 calls
HF: Form C  :       0.01u       0.00s   0.002332w     11 calls
HF: Form D  :       0.00u       0.00s   0.000040w     11 calls
DFMP2 Singles:       0.00u       0.00s 0.00004100w      1 call
DFMP2 Aia   :       0.03u       0.00s 0.02894500w      1 call
DFMP2 (A|mn):       0.01u       0.00s 0.01469200w      1 call
DFMP2 (A|mn)C_mi:       0.00u       0.00s 0.00024500w      1 call
DFMP2 (A|mi)C_na:       0.00u       0.00s 0.00015300w      1 call
DFMP2 Aia Write:       0.00u       0.00s 0.00017400w      1 call
DFMP2 Qia   :       0.02u       0.00s 0.01222100w      1 call
DFMP2 Metric:       0.01u       0.00s 0.01127300w      1 call
DFMP2 Aia Read:       0.00u       0.00s 0.00021700w      1 call
DFMP2 (Q|A)(A|ia):       0.01u       0.00s 0.00043800w      1 call
DFMP2 Qia Write:       0.00u       0.00s 0.00017100w      1 call
DFMP2 Energy:       0.00u       0.00s 0.00083000w      1 call
DFMP2 Qia Read:       0.00u       0.00s   0.000053w      2 calls

***********************************************************

Host: harper-XPS-13-9370

Timers On : Mon Aug 13 13:23:09 2018
Timers Off: Mon Aug 13 13:23:10 2018

Wall Time:        1.00 seconds

JK: (A|mn)  :       0.00u       0.00s   0.008800w      3 calls
JK: (A|Q)^-1/2:       0.04u       0.00s   0.025705w      3 calls
JK: (Q|mn)  :       0.00u       0.00s   0.000475w      3 calls
HF: Form H  :       0.00u       0.00s 0.00030600w      1 call
HF: Form S/X:       0.00u       0.00s 0.00008600w      1 call
HF: Guess   :       0.04u       0.00s 0.04286500w      1 call
SAD Guess   :       0.04u       0.00s 0.04132100w      1 call
JK: D       :       0.00u       0.00s   0.000068w     19 calls
JK: USO2AO  :       0.00u       0.00s   0.000050w     19 calls
JK: JK      :       0.00u       0.00s   0.002927w     19 calls
JK: J       :       0.00u       0.00s   0.000273w     19 calls
JK: J1      :       0.00u       0.00s   0.000128w     28 calls
JK: J2      :       0.00u       0.00s   0.000097w     28 calls
JK: K       :       0.00u       0.00s   0.002486w     19 calls
JK: K1      :       0.00u       0.00s   0.001980w     26 calls
JK: K2      :       0.00u       0.00s   0.000465w     26 calls
JK: AO2USO  :       0.00u       0.00s   0.000013w     19 calls
DIISManager::add_entry:       0.00u       0.00s   0.000347w     18 calls
DIISManager::extrapolate:       0.00u       0.00s   0.000544w     17 calls
DIISManager::extrapolate: bMatrix setup:       0.00u       0.00s   0.000148w     17 calls
DIISManager::extrapolate: bMatrix pseudoinverse:       0.00u       0.00s   0.000213w     17 calls
DIISManager::extrapolate: form new data:       0.00u       0.00s   0.000136w     17 calls
HF: Form G  :       0.00u       0.00s   0.002542w     10 calls
HF: Form F  :       0.00u       0.00s   0.000017w     10 calls
HF: DIIS    :       0.00u       0.00s   0.000782w     10 calls
HF: Form C  :       0.00u       0.00s   0.000644w     10 calls
HF: Form D  :       0.00u       0.00s   0.000019w     10 calls
DFMP2 Singles:       0.00u       0.00s 0.00002200w      1 call
DFMP2 Aia   :       0.01u       0.00s 0.01531400w      1 call
DFMP2 (A|mn):       0.00u       0.00s 0.00284200w      1 call
DFMP2 (A|mn)C_mi:       0.00u       0.00s 0.00003800w      1 call
DFMP2 (A|mi)C_na:       0.00u       0.00s 0.00002800w      1 call
DFMP2 Aia Write:       0.00u       0.00s 0.00003500w      1 call
DFMP2 Qia   :       0.01u       0.00s 0.00826400w      1 call
DFMP2 Metric:       0.01u       0.00s 0.00796900w      1 call
DFMP2 Aia Read:       0.00u       0.00s 0.00010200w      1 call
DFMP2 (Q|A)(A|ia):       0.00u       0.00s 0.00005100w      1 call
DFMP2 Qia Write:       0.00u       0.00s 0.00003900w      1 call
DFMP2 Energy:       0.00u       0.00s 0.00016000w      1 call
DFMP2 Qia Read:       0.00u       0.00s   0.000012w      2 calls

***********************************************************

Host: harper-XPS-13-9370

Timers On : Mon Aug 13 13:23:10 2018
Timers Off: Mon Aug 13 13:23:10 2018

Wall Time:        0.00 seconds

JK: (A|mn)  :       0.00u       0.00s   0.008605w      3 calls
JK: (A|Q)^-1/2:       0.02u       0.00s   0.025130w      3 calls
JK: (Q|mn)  :       0.00u       0.00s   0.000498w      3 calls
HF: Form H  :       0.00u       0.00s 0.00035300w      1 call
HF: Form S/X:       0.00u       0.00s 0.00009000w      1 call
HF: Guess   :       0.04u       0.01s 0.04095500w      1 call
SAD Guess   :       0.04u       0.01s 0.03939900w      1 call
JK: D       :       0.00u       0.01s   0.000047w     20 calls
JK: USO2AO  :       0.00u       0.00s   0.000031w     20 calls
JK: JK      :       0.01u       0.00s   0.003144w     20 calls
JK: J       :       0.00u       0.00s   0.000278w     20 calls
JK: J1      :       0.00u       0.00s   0.000127w     29 calls
JK: J2      :       0.00u       0.00s   0.000102w     29 calls
JK: K       :       0.01u       0.00s   0.002695w     20 calls
JK: K1      :       0.01u       0.00s   0.002158w     27 calls
JK: K2      :       0.00u       0.00s   0.000496w     27 calls
JK: AO2USO  :       0.00u       0.00s   0.000008w     20 calls
DIISManager::add_entry:       0.00u       0.00s   0.000374w     19 calls
DIISManager::extrapolate:       0.00u       0.00s   0.000584w     18 calls
DIISManager::extrapolate: bMatrix setup:       0.00u       0.00s   0.000195w     18 calls
DIISManager::extrapolate: bMatrix pseudoinverse:       0.00u       0.00s   0.000201w     18 calls
DIISManager::extrapolate: form new data:       0.00u       0.00s   0.000147w     18 calls
HF: Form G  :       0.01u       0.00s   0.002825w     11 calls
HF: Form F  :       0.00u       0.00s   0.000014w     11 calls
HF: DIIS    :       0.00u       0.00s   0.000921w     11 calls
HF: Form C  :       0.00u       0.00s   0.000630w     11 calls
HF: Form D  :       0.00u       0.00s   0.000019w     11 calls
DFMP2 Singles:       0.00u       0.00s 0.00002200w      1 call
DFMP2 Aia   :       0.02u       0.00s 0.01519000w      1 call
DFMP2 (A|mn):       0.01u       0.00s 0.00281900w      1 call
DFMP2 (A|mn)C_mi:       0.00u       0.00s 0.00003700w      1 call
DFMP2 (A|mi)C_na:       0.00u       0.00s 0.00002700w      1 call
DFMP2 Aia Write:       0.00u       0.00s 0.00003500w      1 call
DFMP2 Qia   :       0.00u       0.00s 0.00817600w      1 call
DFMP2 Metric:       0.00u       0.00s 0.00789200w      1 call
DFMP2 Aia Read:       0.00u       0.00s 0.00010300w      1 call
DFMP2 (Q|A)(A|ia):       0.00u       0.00s 0.00005000w      1 call
DFMP2 Qia Write:       0.00u       0.00s 0.00003800w      1 call
DFMP2 Energy:       0.00u       0.00s 0.00015600w      1 call
DFMP2 Qia Read:       0.00u       0.00s   0.000011w      2 calls

***********************************************************

Host: harper-XPS-13-9370

Timers On : Mon Aug 13 13:23:10 2018
Timers Off: Mon Aug 13 13:23:11 2018

Wall Time:        1.00 seconds

JK: (A|mn)  :       0.12u       0.00s   0.120521w      3 calls
JK: (A|Q)^-1/2:       0.05u       0.00s   0.054847w      3 calls
JK: (Q|mn)  :       0.02u       0.00s   0.016544w      3 calls
HF: Form H  :       0.00u       0.00s 0.00126400w      1 call
HF: Form S/X:       0.00u       0.00s 0.00043700w      1 call
HF: Guess   :       0.04u       0.00s 0.04109700w      1 call
SAD Guess   :       0.04u       0.00s 0.03942600w      1 call
JK: D       :       0.00u       0.00s   0.000112w     21 calls
JK: USO2AO  :       0.00u       0.00s   0.000063w     21 calls
JK: JK      :       0.11u       0.00s   0.095478w     21 calls
JK: J       :       0.02u       0.00s   0.007502w     21 calls
JK: J1      :       0.00u       0.00s   0.003335w     30 calls
JK: J2      :       0.02u       0.00s   0.004007w     30 calls
JK: K       :       0.09u       0.00s   0.085825w     21 calls
JK: K1      :       0.07u       0.00s   0.071324w     28 calls
JK: K2      :       0.02u       0.00s   0.014389w     28 calls
JK: AO2USO  :       0.00u       0.00s   0.000014w     21 calls
DIISManager::add_entry:       0.00u       0.00s   0.000995w     20 calls
DIISManager::extrapolate:       0.00u       0.00s   0.001610w     19 calls
DIISManager::extrapolate: bMatrix setup:       0.00u       0.00s   0.000573w     19 calls
DIISManager::extrapolate: bMatrix pseudoinverse:       0.00u       0.00s   0.000404w     19 calls
DIISManager::extrapolate: form new data:       0.00u       0.00s   0.000571w     19 calls
HF: Form G  :       0.11u       0.00s   0.095458w     12 calls
HF: Form F  :       0.00u       0.00s   0.000113w     12 calls
HF: DIIS    :       0.00u       0.00s   0.003404w     12 calls
HF: Form C  :       0.00u       0.00s   0.004596w     12 calls
HF: Form D  :       0.00u       0.00s   0.000073w     12 calls
DFMP2 Singles:       0.00u       0.00s 0.00006200w      1 call
DFMP2 Aia   :       0.06u       0.00s 0.06144200w      1 call
DFMP2 (A|mn):       0.04u       0.00s 0.04155200w      1 call
DFMP2 (A|mn)C_mi:       0.01u       0.00s 0.00136500w      1 call
DFMP2 (A|mi)C_na:       0.00u       0.00s 0.00052200w      1 call
DFMP2 Aia Write:       0.00u       0.00s 0.00053700w      1 call
DFMP2 Qia   :       0.02u       0.00s 0.02118000w      1 call
DFMP2 Metric:       0.01u       0.00s 0.01824500w      1 call
DFMP2 Aia Read:       0.01u       0.00s 0.00040800w      1 call
DFMP2 (Q|A)(A|ia):       0.00u       0.00s 0.00181500w      1 call
DFMP2 Qia Write:       0.00u       0.00s 0.00048300w      1 call
DFMP2 Energy:       0.00u       0.00s 0.00350900w      1 call
DFMP2 Qia Read:       0.00u       0.00s   0.000161w      2 calls

***********************************************************

Host: harper-XPS-13-9370

Timers On : Mon Aug 13 13:23:11 2018
Timers Off: Mon Aug 13 13:23:12 2018

Wall Time:        1.00 seconds

JK: (A|mn)  :       0.01u       0.00s   0.008310w      3 calls
JK: (A|Q)^-1/2:       0.03u       0.00s   0.024566w      3 calls
JK: (Q|mn)  :       0.00u       0.00s   0.000498w      3 calls
HF: Form H  :       0.00u       0.00s 0.00032600w      1 call
HF: Form S/X:       0.00u       0.00s 0.00008700w      1 call
HF: Guess   :       0.04u       0.00s 0.04315900w      1 call
SAD Guess   :       0.04u       0.00s 0.04165900w      1 call
JK: D       :       0.00u       0.00s   0.000061w     19 calls
JK: USO2AO  :       0.00u       0.00s   0.000036w     19 calls
JK: JK      :       0.00u       0.00s   0.003393w     19 calls
JK: J       :       0.00u       0.00s   0.000289w     19 calls
JK: J1      :       0.00u       0.00s   0.000126w     28 calls
JK: J2      :       0.00u       0.00s   0.000095w     28 calls
JK: K       :       0.00u       0.00s   0.002904w     19 calls
JK: K1      :       0.00u       0.00s   0.002333w     26 calls
JK: K2      :       0.00u       0.00s   0.000519w     26 calls
JK: AO2USO  :       0.00u       0.00s   0.000012w     19 calls
DIISManager::add_entry:       0.00u       0.00s   0.000408w     18 calls
DIISManager::extrapolate:       0.00u       0.00s   0.000595w     17 calls
DIISManager::extrapolate: bMatrix setup:       0.00u       0.00s   0.000155w     17 calls
DIISManager::extrapolate: bMatrix pseudoinverse:       0.00u       0.00s   0.000238w     17 calls
DIISManager::extrapolate: form new data:       0.00u       0.00s   0.000161w     17 calls
HF: Form G  :       0.00u       0.00s   0.002749w     10 calls
HF: Form F  :       0.00u       0.00s   0.000013w     10 calls
HF: DIIS    :       0.00u       0.00s   0.000875w     10 calls
HF: Form C  :       0.00u       0.00s   0.000582w     10 calls
HF: Form D  :       0.00u       0.00s   0.000020w     10 calls
DFMP2 Singles:       0.00u       0.00s 0.00002100w      1 call
DFMP2 Aia   :       0.01u       0.00s 0.01516500w      1 call
DFMP2 (A|mn):       0.00u       0.00s 0.00280600w      1 call
DFMP2 (A|mn)C_mi:       0.00u       0.00s 0.00003700w      1 call
DFMP2 (A|mi)C_na:       0.00u       0.00s 0.00002700w      1 call
DFMP2 Aia Write:       0.00u       0.00s 0.00003500w      1 call
DFMP2 Qia   :       0.01u       0.00s 0.00845000w      1 call
DFMP2 Metric:       0.01u       0.00s 0.00804900w      1 call
DFMP2 Aia Read:       0.00u       0.00s 0.00010200w      1 call
DFMP2 (Q|A)(A|ia):       0.00u       0.00s 0.00004900w      1 call
DFMP2 Qia Write:       0.00u       0.00s 0.00003900w      1 call
DFMP2 Energy:       0.00u       0.00s 0.00016300w      1 call
DFMP2 Qia Read:       0.00u       0.00s   0.000012w      2 calls

***********************************************************

Host: harper-XPS-13-9370

Timers On : Mon Aug 13 13:23:12 2018
Timers Off: Mon Aug 13 13:23:12 2018

Wall Time:        0.00 seconds

JK: (A|mn)  :       0.01u       0.00s   0.008418w      3 calls
JK: (A|Q)^-1/2:       0.02u       0.00s   0.024263w      3 calls
JK: (Q|mn)  :       0.00u       0.00s   0.000491w      3 calls
HF: Form H  :       0.00u       0.00s 0.00032300w      1 call
HF: Form S/X:       0.00u       0.00s 0.00008600w      1 call
HF: Guess   :       0.04u       0.00s 0.04042000w      1 call
SAD Guess   :       0.04u       0.00s 0.03884300w      1 call
JK: D       :       0.00u       0.00s   0.000044w     20 calls
JK: USO2AO  :       0.00u       0.00s   0.000033w     20 calls
JK: JK      :       0.00u       0.00s   0.003166w     20 calls
JK: J       :       0.00u       0.00s   0.000269w     20 calls
JK: J1      :       0.00u       0.00s   0.000122w     29 calls
JK: J2      :       0.00u       0.00s   0.000099w     29 calls
JK: K       :       0.00u       0.00s   0.002723w     20 calls
JK: K1      :       0.00u       0.00s   0.002175w     27 calls
JK: K2      :       0.00u       0.00s   0.000497w     27 calls
JK: AO2USO  :       0.00u       0.00s   0.000013w     20 calls
DIISManager::add_entry:       0.00u       0.00s   0.000328w     19 calls
DIISManager::extrapolate:       0.00u       0.00s   0.000593w     18 calls
DIISManager::extrapolate: bMatrix setup:       0.00u       0.00s   0.000186w     18 calls
DIISManager::extrapolate: bMatrix pseudoinverse:       0.00u       0.00s   0.000205w     18 calls
DIISManager::extrapolate: form new data:       0.00u       0.00s   0.000151w     18 calls
HF: Form G  :       0.00u       0.00s   0.002853w     11 calls
HF: Form F  :       0.00u       0.00s   0.000015w     11 calls
HF: DIIS    :       0.00u       0.00s   0.000898w     11 calls
HF: Form C  :       0.01u       0.00s   0.000633w     11 calls
HF: Form D  :       0.00u       0.00s   0.000023w     11 calls
DFMP2 Singles:       0.00u       0.00s 0.00002100w      1 call
DFMP2 Aia   :       0.01u       0.00s 0.01512200w      1 call
DFMP2 (A|mn):       0.00u       0.00s 0.00284100w      1 call
DFMP2 (A|mn)C_mi:       0.00u       0.00s 0.00003800w      1 call
DFMP2 (A|mi)C_na:       0.00u       0.00s 0.00002800w      1 call
DFMP2 Aia Write:       0.00u       0.00s 0.00003700w      1 call
DFMP2 Qia   :       0.01u       0.00s 0.00846000w      1 call
DFMP2 Metric:       0.01u       0.00s 0.00785000w      1 call
DFMP2 Aia Read:       0.00u       0.00s 0.00010000w      1 call
DFMP2 (Q|A)(A|ia):       0.00u       0.00s 0.00005000w      1 call
DFMP2 Qia Write:       0.00u       0.00s 0.00003700w      1 call
DFMP2 Energy:       0.00u       0.00s 0.00015800w      1 call
DFMP2 Qia Read:       0.00u       0.00s   0.000011w      2 calls

***********************************************************

Host: harper-XPS-13-9370

Timers On : Mon Aug 13 13:23:12 2018
Timers Off: Mon Aug 13 13:23:13 2018

Wall Time:        1.00 seconds

JK: (A|mn)  :       0.03u       0.00s   0.025453w      3 calls
JK: (A|Q)^-1/2:       0.03u       0.00s   0.029826w      3 calls
JK: (Q|mn)  :       0.00u       0.00s   0.003038w      3 calls
HF: Form H  :       0.00u       0.00s 0.00062000w      1 call
HF: Form S/X:       0.00u       0.00s 0.00025200w      1 call
HF: Guess   :       0.04u       0.00s 0.04320200w      1 call
SAD Guess   :       0.04u       0.00s 0.04139600w      1 call
JK: D       :       0.00u       0.00s   0.000070w     22 calls
JK: USO2AO  :       0.00u       0.00s   0.000037w     22 calls
JK: JK      :       0.02u       0.00s   0.015183w     22 calls
JK: J       :       0.00u       0.00s   0.000890w     22 calls
JK: J1      :       0.00u       0.00s   0.000427w     31 calls
JK: J2      :       0.00u       0.00s   0.000384w     31 calls
JK: K       :       0.02u       0.00s   0.013934w     22 calls
JK: K1      :       0.02u       0.00s   0.011570w     29 calls
JK: K2      :       0.00u       0.00s   0.002312w     29 calls
JK: AO2USO  :       0.00u       0.00s   0.000010w     22 calls
DIISManager::add_entry:       0.00u       0.00s   0.000460w     21 calls
DIISManager::extrapolate:       0.00u       0.00s   0.000891w     20 calls
DIISManager::extrapolate: bMatrix setup:       0.00u       0.00s   0.000306w     20 calls
DIISManager::extrapolate: bMatrix pseudoinverse:       0.00u       0.00s   0.000251w     20 calls
DIISManager::extrapolate: form new data:       0.00u       0.00s   0.000278w     20 calls
HF: Form G  :       0.02u       0.00s   0.014924w     13 calls
HF: Form F  :       0.00u       0.00s   0.000028w     13 calls
HF: DIIS    :       0.00u       0.00s   0.001503w     13 calls
HF: Form C  :       0.00u       0.00s   0.001884w     13 calls
HF: Form D  :       0.00u       0.00s   0.000036w     13 calls
DFMP2 Singles:       0.00u       0.00s 0.00003800w      1 call
DFMP2 Aia   :       0.02u       0.00s 0.02238900w      1 call
DFMP2 (A|mn):       0.01u       0.00s 0.00888900w      1 call
DFMP2 (A|mn)C_mi:       0.00u       0.00s 0.00009700w      1 call
DFMP2 (A|mi)C_na:       0.00u       0.00s 0.00009400w      1 call
DFMP2 Aia Write:       0.00u       0.00s 0.00015400w      1 call
DFMP2 Qia   :       0.01u       0.00s 0.01036200w      1 call
DFMP2 Metric:       0.01u       0.00s 0.00967200w      1 call
DFMP2 Aia Read:       0.00u       0.00s 0.00017600w      1 call
DFMP2 (Q|A)(A|ia):       0.00u       0.00s 0.00028200w      1 call
DFMP2 Qia Write:       0.00u       0.00s 0.00012300w      1 call
DFMP2 Energy:       0.00u       0.00s 0.00064800w      1 call
DFMP2 Qia Read:       0.00u       0.00s   0.000038w      2 calls

***********************************************************

Host: harper-XPS-13-9370

Timers On : Mon Aug 13 13:23:13 2018
Timers Off: Mon Aug 13 13:23:13 2018

Wall Time:        0.00 seconds

JK: (A|mn)  :       0.00u       0.00s   0.008187w      3 calls
JK: (A|Q)^-1/2:       0.04u       0.00s   0.024072w      3 calls
JK: (Q|mn)  :       0.00u       0.00s   0.000463w      3 calls
HF: Form H  :       0.00u       0.00s 0.00042400w      1 call
HF: Form S/X:       0.00u       0.00s 0.00009900w      1 call
HF: Guess   :       0.04u       0.00s 0.04038800w      1 call
SAD Guess   :       0.04u       0.00s 0.03888200w      1 call
JK: D       :       0.00u       0.00s   0.000045w     20 calls
JK: USO2AO  :       0.00u       0.00s   0.000029w     20 calls
JK: JK      :       0.00u       0.00s   0.003104w     20 calls
JK: J       :       0.00u       0.00s   0.000249w     20 calls
JK: J1      :       0.00u       0.00s   0.000110w     29 calls
JK: J2      :       0.00u       0.00s   0.000093w     29 calls
JK: K       :       0.00u       0.00s   0.002686w     20 calls
JK: K1      :       0.00u       0.00s   0.002153w     27 calls
JK: K2      :       0.00u       0.00s   0.000494w     27 calls
JK: AO2USO  :       0.00u       0.00s   0.000012w     20 calls
DIISManager::add_entry:       0.00u       0.00s   0.000312w     19 calls
DIISManager::extrapolate:       0.00u       0.00s   0.000562w     18 calls
DIISManager::extrapolate: bMatrix setup:       0.00u       0.00s   0.000176w     18 calls
DIISManager::extrapolate: bMatrix pseudoinverse:       0.00u       0.00s   0.000198w     18 calls
DIISManager::extrapolate: form new data:       0.00u       0.00s   0.000147w     18 calls
HF: Form G  :       0.00u       0.00s   0.002789w     11 calls
HF: Form F  :       0.00u       0.00s   0.000016w     11 calls
HF: DIIS    :       0.00u       0.00s   0.000840w     11 calls
HF: Form C  :       0.00u       0.00s   0.000616w     11 calls
HF: Form D  :       0.00u       0.00s   0.000020w     11 calls
DFMP2 Singles:       0.00u       0.00s 0.00002300w      1 call
DFMP2 Aia   :       0.02u       0.00s 0.01630600w      1 call
DFMP2 (A|mn):       0.01u       0.00s 0.00288400w      1 call
DFMP2 (A|mn)C_mi:       0.00u       0.00s 0.00005200w      1 call
DFMP2 (A|mi)C_na:       0.00u       0.00s 0.00005200w      1 call
DFMP2 Aia Write:       0.00u       0.00s 0.00005300w      1 call
DFMP2 Qia   :       0.00u       0.00s 0.00830100w      1 call
DFMP2 Metric:       0.00u       0.00s 0.00800600w      1 call
DFMP2 Aia Read:       0.00u       0.00s 0.00010500w      1 call
DFMP2 (Q|A)(A|ia):       0.00u       0.00s 0.00005200w      1 call
DFMP2 Qia Write:       0.00u       0.00s 0.00003900w      1 call
DFMP2 Energy:       0.00u       0.00s 0.00015800w      1 call
DFMP2 Qia Read:       0.00u       0.00s   0.000012w      2 calls

***********************************************************

Host: harper-XPS-13-9370

Timers On : Mon Aug 13 13:23:13 2018
Timers Off: Mon Aug 13 13:23:14 2018

Wall Time:        1.00 seconds

JK: (A|mn)  :       0.04u       0.00s   0.040685w      3 calls
JK: (A|Q)^-1/2:       0.04u       0.00s   0.033787w      3 calls
JK: (Q|mn)  :       0.00u       0.00s   0.003837w      3 calls
HF: Form H  :       0.01u       0.00s 0.00040700w      1 call
HF: Form S/X:       0.00u       0.00s 0.00021600w      1 call
HF: Guess   :       0.04u       0.00s 0.04055000w      1 call
SAD Guess   :       0.04u       0.00s 0.03902600w      1 call
JK: D       :       0.00u       0.00s   0.000065w     20 calls
JK: USO2AO  :       0.00u       0.00s   0.000038w     20 calls
JK: JK      :       0.02u       0.00s   0.021240w     20 calls
JK: J       :       0.00u       0.00s   0.001199w     20 calls
JK: J1      :       0.00u       0.00s   0.000585w     29 calls
JK: J2      :       0.00u       0.00s   0.000537w     29 calls
JK: K       :       0.02u       0.00s   0.019617w     20 calls
JK: K1      :       0.02u       0.00s   0.016174w     27 calls
JK: K2      :       0.00u       0.00s   0.003386w     27 calls
JK: AO2USO  :       0.00u       0.00s   0.000010w     20 calls
DIISManager::add_entry:       0.00u       0.00s   0.000517w     19 calls
DIISManager::extrapolate:       0.00u       0.00s   0.000807w     18 calls
DIISManager::extrapolate: bMatrix setup:       0.00u       0.00s   0.000273w     18 calls
DIISManager::extrapolate: bMatrix pseudoinverse:       0.00u       0.00s   0.000226w     18 calls
DIISManager::extrapolate: form new data:       0.00u       0.00s   0.000259w     18 calls
HF: Form G  :       0.02u       0.00s   0.021009w     11 calls
HF: Form F  :       0.00u       0.00s   0.000029w     11 calls
HF: DIIS    :       0.00u       0.00s   0.001510w     11 calls
HF: Form C  :       0.00u       0.00s   0.001983w     11 calls
HF: Form D  :       0.00u       0.00s   0.000039w     11 calls
DFMP2 Singles:       0.00u       0.00s 0.00004000w      1 call
DFMP2 Aia   :       0.03u       0.00s 0.02896300w      1 call
DFMP2 (A|mn):       0.01u       0.00s 0.01460200w      1 call
DFMP2 (A|mn)C_mi:       0.00u       0.00s 0.00024800w      1 call
DFMP2 (A|mi)C_na:       0.00u       0.00s 0.00015500w      1 call
DFMP2 Aia Write:       0.00u       0.00s 0.00017700w      1 call
DFMP2 Qia   :       0.01u       0.00s 0.01244700w      1 call
DFMP2 Metric:       0.01u       0.00s 0.01121800w      1 call
DFMP2 Aia Read:       0.00u       0.00s 0.00026100w      1 call
DFMP2 (Q|A)(A|ia):       0.00u       0.00s 0.00046700w      1 call
DFMP2 Qia Write:       0.00u       0.00s 0.00029800w      1 call
DFMP2 Energy:       0.01u       0.00s 0.00142100w      1 call
DFMP2 Qia Read:       0.00u       0.00s   0.000094w      2 calls

***********************************************************

Host: harper-XPS-13-9370

Timers On : Mon Aug 13 13:23:14 2018
Timers Off: Mon Aug 13 13:23:15 2018

Wall Time:        1.00 seconds

JK: (A|mn)  :       0.05u       0.00s   0.041175w      3 calls
JK: (A|Q)^-1/2:       0.03u       0.01s   0.034633w      3 calls
JK: (Q|mn)  :       0.00u       0.00s   0.003899w      3 calls
HF: Form H  :       0.00u       0.00s 0.00040000w      1 call
HF: Form S/X:       0.00u       0.00s 0.00021600w      1 call
HF: Guess   :       0.05u       0.00s 0.04326800w      1 call
SAD Guess   :       0.05u       0.00s 0.04173500w      1 call
JK: D       :       0.00u       0.00s   0.000084w     21 calls
JK: USO2AO  :       0.00u       0.00s   0.000041w     21 calls
JK: JK      :       0.01u       0.00s   0.022033w     21 calls
JK: J       :       0.01u       0.00s   0.001182w     21 calls
JK: J1      :       0.00u       0.00s   0.000574w     30 calls
JK: J2      :       0.01u       0.00s   0.000528w     30 calls
JK: K       :       0.00u       0.00s   0.020404w     21 calls
JK: K1      :       0.00u       0.00s   0.016914w     28 calls
JK: K2      :       0.00u       0.00s   0.003439w     28 calls
JK: AO2USO  :       0.00u       0.00s   0.000013w     21 calls
DIISManager::add_entry:       0.00u       0.00s   0.000517w     20 calls
DIISManager::extrapolate:       0.00u       0.00s   0.000887w     19 calls
DIISManager::extrapolate: bMatrix setup:       0.00u       0.00s   0.000294w     19 calls
DIISManager::extrapolate: bMatrix pseudoinverse:       0.00u       0.00s   0.000248w     19 calls
DIISManager::extrapolate: form new data:       0.00u       0.00s   0.000290w     19 calls
HF: Form G  :       0.02u       0.00s   0.021775w     12 calls
HF: Form F  :       0.00u       0.00s   0.000031w     12 calls
HF: DIIS    :       0.00u       0.00s   0.001587w     12 calls
HF: Form C  :       0.00u       0.00s   0.001980w     12 calls
HF: Form D  :       0.00u       0.00s   0.000039w     12 calls
DFMP2 Singles:       0.00u       0.00s 0.00004100w      1 call
DFMP2 Aia   :       0.03u       0.00s 0.02952900w      1 call
DFMP2 (A|mn):       0.01u       0.00s 0.01528600w      1 call
DFMP2 (A|mn)C_mi:       0.00u       0.00s 0.00031000w      1 call
DFMP2 (A|mi)C_na:       0.00u       0.00s 0.00016300w      1 call
DFMP2 Aia Write:       0.00u       0.00s 0.00018000w      1 call
DFMP2 Qia   :       0.01u       0.00s 0.01217600w      1 call
DFMP2 Metric:       0.01u       0.00s 0.01116500w      1 call
DFMP2 Aia Read:       0.00u       0.00s 0.00021500w      1 call
DFMP2 (Q|A)(A|ia):       0.00u       0.00s 0.00044600w      1 call
DFMP2 Qia Write:       0.00u       0.00s 0.00020100w      1 call
DFMP2 Energy:       0.01u       0.00s 0.00088300w      1 call
DFMP2 Qia Read:       0.00u       0.00s   0.000053w      2 calls

***********************************************************

Host: harper-XPS-13-9370

Timers On : Mon Aug 13 13:23:15 2018
Timers Off: Mon Aug 13 13:23:17 2018

Wall Time:        2.00 seconds

JK: (A|mn)  :       0.30u       0.00s   0.309232w      3 calls
JK: (A|Q)^-1/2:       0.10u       0.00s   0.121243w      3 calls
JK: (Q|mn)  :       0.07u       0.00s   0.066415w      3 calls
HF: Form H  :       0.00u       0.00s 0.02825700w      1 call
HF: Form S/X:       0.00u       0.00s 0.00203800w      1 call
HF: Guess   :       0.05u       0.01s 0.05786500w      1 call
SAD Guess   :       0.05u       0.01s 0.05375900w      1 call
JK: D       :       0.00u       0.00s   0.000334w     23 calls
JK: USO2AO  :       0.00u       0.00s   0.000109w     23 calls
JK: JK      :       0.60u       0.01s   0.612169w     23 calls
JK: J       :       0.04u       0.00s   0.029672w     23 calls
JK: J1      :       0.02u       0.00s   0.014871w     32 calls
JK: J2      :       0.02u       0.00s   0.014365w     32 calls
JK: K       :       0.56u       0.01s   0.573137w     23 calls
JK: K1      :       0.45u       0.01s   0.466959w     30 calls
JK: K2      :       0.11u       0.00s   0.105990w     30 calls
JK: AO2USO  :       0.00u       0.00s   0.000037w     23 calls
DIISManager::add_entry:       0.00u       0.00s   0.002005w     22 calls
DIISManager::extrapolate:       0.00u       0.00s   0.031454w     21 calls
DIISManager::extrapolate: bMatrix setup:       0.00u       0.00s   0.029013w     21 calls
DIISManager::extrapolate: bMatrix pseudoinverse:       0.00u       0.00s   0.000604w     21 calls
DIISManager::extrapolate: form new data:       0.00u       0.00s   0.001749w     21 calls
HF: Form G  :       0.60u       0.00s   0.612719w     14 calls
HF: Form F  :       0.00u       0.00s   0.000269w     14 calls
HF: DIIS    :       0.00u       0.00s   0.037181w     14 calls
HF: Form C  :       0.04u       0.00s   0.016058w     14 calls
HF: Form D  :       0.00u       0.00s   0.000276w     14 calls
DFMP2 Singles:       0.00u       0.00s 0.00012500w      1 call
DFMP2 Aia   :       0.14u       0.01s 0.14918600w      1 call
DFMP2 (A|mn):       0.11u       0.01s 0.11080000w      1 call
DFMP2 (A|mn)C_mi:       0.01u       0.00s 0.00610500w      1 call
DFMP2 (A|mi)C_na:       0.00u       0.00s 0.00299900w      1 call
DFMP2 Aia Write:       0.00u       0.00s 0.00190600w      1 call
DFMP2 Qia   :       0.05u       0.00s 0.04532200w      1 call
DFMP2 Metric:       0.04u       0.00s 0.03390300w      1 call
DFMP2 Aia Read:       0.00u       0.00s 0.00094200w      1 call
DFMP2 (Q|A)(A|ia):       0.01u       0.00s 0.00839000w      1 call
DFMP2 Qia Write:       0.00u       0.00s 0.00161600w      1 call
DFMP2 Energy:       0.02u       0.00s 0.02055000w      1 call
DFMP2 Qia Read:       0.00u       0.00s   0.000919w      2 calls

***********************************************************

Host: harper-XPS-13-9370

Timers On : Mon Aug 13 13:23:17 2018
Timers Off: Mon Aug 13 13:23:18 2018

Wall Time:        1.00 seconds

JK: (A|mn)  :       0.12u       0.00s   0.118929w      3 calls
JK: (A|Q)^-1/2:       0.07u       0.00s   0.079002w      3 calls
JK: (Q|mn)  :       0.01u       0.00s   0.017103w      3 calls
HF: Form H  :       0.01u       0.00s 0.00157200w      1 call
HF: Form S/X:       0.00u       0.00s 0.00045800w      1 call
HF: Guess   :       0.04u       0.00s 0.04247500w      1 call
SAD Guess   :       0.04u       0.00s 0.04079900w      1 call
JK: D       :       0.00u       0.00s   0.000113w     21 calls
JK: USO2AO  :       0.00u       0.00s   0.000056w     21 calls
JK: JK      :       0.08u       0.00s   0.083333w     21 calls
JK: J       :       0.01u       0.00s   0.006899w     21 calls
JK: J1      :       0.00u       0.00s   0.003168w     30 calls
JK: J2      :       0.01u       0.00s   0.003581w     30 calls
JK: K       :       0.07u       0.00s   0.074256w     21 calls
JK: K1      :       0.06u       0.00s   0.060755w     28 calls
JK: K2      :       0.01u       0.00s   0.013398w     28 calls
JK: AO2USO  :       0.00u       0.00s   0.000016w     21 calls
DIISManager::add_entry:       0.00u       0.00s   0.000982w     20 calls
DIISManager::extrapolate:       0.00u       0.00s   0.001521w     19 calls
DIISManager::extrapolate: bMatrix setup:       0.00u       0.00s   0.000556w     19 calls
DIISManager::extrapolate: bMatrix pseudoinverse:       0.00u       0.00s   0.000377w     19 calls
DIISManager::extrapolate: form new data:       0.00u       0.00s   0.000529w     19 calls
HF: Form G  :       0.08u       0.00s   0.083300w     12 calls
HF: Form F  :       0.00u       0.00s   0.000106w     12 calls
HF: DIIS    :       0.00u       0.00s   0.003234w     12 calls
HF: Form C  :       0.01u       0.00s   0.004206w     12 calls
HF: Form D  :       0.00u       0.00s   0.000066w     12 calls
DFMP2 Singles:       0.00u       0.00s 0.00010300w      1 call
DFMP2 Aia   :       0.06u       0.00s 0.06266700w      1 call
DFMP2 (A|mn):       0.04u       0.00s 0.04161500w      1 call
DFMP2 (A|mn)C_mi:       0.00u       0.00s 0.00154000w      1 call
DFMP2 (A|mi)C_na:       0.00u       0.00s 0.00051600w      1 call
DFMP2 Aia Write:       0.00u       0.00s 0.00053500w      1 call
DFMP2 Qia   :       0.02u       0.00s 0.02029300w      1 call
DFMP2 Metric:       0.02u       0.00s 0.01740300w      1 call
DFMP2 Aia Read:       0.00u       0.00s 0.00040200w      1 call
DFMP2 (Q|A)(A|ia):       0.00u       0.00s 0.00180700w      1 call
DFMP2 Qia Write:       0.00u       0.00s 0.00047400w      1 call
DFMP2 Energy:       0.00u       0.00s 0.00348500w      1 call
DFMP2 Qia Read:       0.00u       0.00s   0.000160w      2 calls

***********************************************************

Host: harper-XPS-13-9370

Timers On : Mon Aug 13 13:23:18 2018
Timers Off: Mon Aug 13 13:23:19 2018

Wall Time:        1.00 seconds

JK: (A|mn)  :       0.09u       0.00s   0.086254w      3 calls
JK: (A|Q)^-1/2:       0.05u       0.00s   0.047401w      3 calls
JK: (Q|mn)  :       0.01u       0.00s   0.011655w      3 calls
HF: Form H  :       0.00u       0.00s 0.00120900w      1 call
HF: Form S/X:       0.00u       0.00s 0.00037200w      1 call
HF: Guess   :       0.05u       0.00s 0.04238800w      1 call
SAD Guess   :       0.05u       0.00s 0.04076900w      1 call
JK: D       :       0.00u       0.00s   0.000135w     23 calls
JK: USO2AO  :       0.00u       0.00s   0.000069w     23 calls
JK: JK      :       0.08u       0.01s   0.076491w     23 calls
JK: J       :       0.00u       0.00s   0.006686w     23 calls
JK: J1      :       0.00u       0.00s   0.003180w     32 calls
JK: J2      :       0.00u       0.00s   0.003352w     32 calls
JK: K       :       0.08u       0.01s   0.067794w     23 calls
JK: K1      :       0.06u       0.01s   0.055494w     30 calls
JK: K2      :       0.02u       0.00s   0.012187w     30 calls
JK: AO2USO  :       0.00u       0.00s   0.000017w     23 calls
DIISManager::add_entry:       0.00u       0.00s   0.001161w     22 calls
DIISManager::extrapolate:       0.00u       0.00s   0.001998w     21 calls
DIISManager::extrapolate: bMatrix setup:       0.00u       0.00s   0.000765w     21 calls
DIISManager::extrapolate: bMatrix pseudoinverse:       0.00u       0.00s   0.000481w     21 calls
DIISManager::extrapolate: form new data:       0.00u       0.00s   0.000684w     21 calls
HF: Form G  :       0.08u       0.01s   0.076471w     14 calls
HF: Form F  :       0.00u       0.00s   0.000118w     14 calls
HF: DIIS    :       0.00u       0.00s   0.003971w     14 calls
HF: Form C  :       0.00u       0.00s   0.004530w     14 calls
HF: Form D  :       0.00u       0.00s   0.000079w     14 calls
DFMP2 Singles:       0.00u       0.00s 0.00005800w      1 call
DFMP2 Aia   :       0.04u       0.00s 0.04801500w      1 call
DFMP2 (A|mn):       0.03u       0.00s 0.02964800w      1 call
DFMP2 (A|mn)C_mi:       0.00u       0.00s 0.00094100w      1 call
DFMP2 (A|mi)C_na:       0.00u       0.00s 0.00047400w      1 call
DFMP2 Aia Write:       0.00u       0.00s 0.00042600w      1 call
DFMP2 Qia   :       0.02u       0.00s 0.01670400w      1 call
DFMP2 Metric:       0.02u       0.00s 0.01454500w      1 call
DFMP2 Aia Read:       0.00u       0.00s 0.00033000w      1 call
DFMP2 (Q|A)(A|ia):       0.00u       0.00s 0.00128200w      1 call
DFMP2 Qia Write:       0.00u       0.00s 0.00036900w      1 call
DFMP2 Energy:       0.00u       0.00s 0.00264400w      1 call
DFMP2 Qia Read:       0.00u       0.00s   0.000121w      2 calls

***********************************************************

Host: harper-XPS-13-9370

Timers On : Mon Aug 13 13:23:19 2018
Timers Off: Mon Aug 13 13:23:21 2018

Wall Time:        2.00 seconds

JK: (A|mn)  :       0.32u       0.00s   0.309314w      3 calls
JK: (A|Q)^-1/2:       0.09u       0.00s   0.120395w      3 calls
JK: (Q|mn)  :       0.07u       0.01s   0.067465w      3 calls
HF: Form H  :       0.00u       0.00s 0.02791200w      1 call
HF: Form S/X:       0.00u       0.00s 0.00097800w      1 call
HF: Guess   :       0.04u       0.00s 0.04615500w      1 call
SAD Guess   :       0.04u       0.00s 0.04426500w      1 call
JK: D       :       0.00u       0.00s   0.000340w     23 calls
JK: USO2AO  :       0.00u       0.00s   0.000118w     23 calls
JK: JK      :       0.59u       0.00s   0.591161w     23 calls
JK: J       :       0.02u       0.00s   0.031354w     23 calls
JK: J1      :       0.02u       0.00s   0.016246w     32 calls
JK: J2      :       0.00u       0.00s   0.014666w     32 calls
JK: K       :       0.55u       0.00s   0.549954w     23 calls
JK: K1      :       0.45u       0.00s   0.445648w     30 calls
JK: K2      :       0.09u       0.00s   0.104090w     30 calls
JK: AO2USO  :       0.00u       0.00s   0.000018w     23 calls
DIISManager::add_entry:       0.00u       0.00s   0.001946w     22 calls
DIISManager::extrapolate:       0.00u       0.00s   0.004171w     21 calls
DIISManager::extrapolate: bMatrix setup:       0.00u       0.00s   0.001702w     21 calls
DIISManager::extrapolate: bMatrix pseudoinverse:       0.00u       0.00s   0.000623w     21 calls
DIISManager::extrapolate: form new data:       0.00u       0.00s   0.001757w     21 calls
HF: Form G  :       0.59u       0.00s   0.591700w     14 calls
HF: Form F  :       0.00u       0.00s   0.000287w     14 calls
HF: DIIS    :       0.01u       0.00s   0.009891w     14 calls
HF: Form C  :       0.02u       0.00s   0.016841w     14 calls
HF: Form D  :       0.00u       0.00s   0.000282w     14 calls
DFMP2 Singles:       0.00u       0.00s 0.00014200w      1 call
DFMP2 Aia   :       0.14u       0.01s 0.14876000w      1 call
DFMP2 (A|mn):       0.11u       0.00s 0.11032600w      1 call
DFMP2 (A|mn)C_mi:       0.01u       0.00s 0.00609200w      1 call
DFMP2 (A|mi)C_na:       0.00u       0.00s 0.00319100w      1 call
DFMP2 Aia Write:       0.00u       0.00s 0.00179700w      1 call
DFMP2 Qia   :       0.04u       0.00s 0.04319700w      1 call
DFMP2 Metric:       0.03u       0.00s 0.03189600w      1 call
DFMP2 Aia Read:       0.00u       0.00s 0.00097300w      1 call
DFMP2 (Q|A)(A|ia):       0.01u       0.00s 0.00815200w      1 call
DFMP2 Qia Write:       0.00u       0.00s 0.00170500w      1 call
DFMP2 Energy:       0.02u       0.00s 0.02397800w      1 call
DFMP2 Qia Read:       0.00u       0.00s   0.000908w      2 calls

***********************************************************

Host: harper-XPS-13-9370

Timers On : Mon Aug 13 13:23:21 2018
Timers Off: Mon Aug 13 13:23:21 2018

Wall Time:        0.00 seconds

JK: (A|mn)  :       0.01u       0.00s   0.008680w      3 calls
JK: (A|Q)^-1/2:       0.04u       0.00s   0.052975w      3 calls
JK: (Q|mn)  :       0.00u       0.00s   0.001981w      3 calls
HF: Form H  :       0.00u       0.00s 0.00136600w      1 call
HF: Form S/X:       0.00u       0.00s 0.00036100w      1 call
HF: Guess   :       0.06u       0.00s 0.05318300w      1 call
SAD Guess   :       0.05u       0.00s 0.04865200w      1 call
JK: D       :       0.00u       0.00s   0.000042w     19 calls
JK: USO2AO  :       0.00u       0.00s   0.000026w     19 calls
JK: JK      :       0.00u       0.00s   0.003006w     19 calls
JK: J       :       0.00u       0.00s   0.000255w     19 calls
JK: J1      :       0.00u       0.00s   0.000121w     28 calls
JK: J2      :       0.00u       0.00s   0.000090w     28 calls
JK: K       :       0.00u       0.00s   0.002592w     19 calls
JK: K1      :       0.00u       0.00s   0.002089w     26 calls
JK: K2      :       0.00u       0.00s   0.000462w     26 calls
JK: AO2USO  :       0.00u       0.00s   0.000018w     19 calls
DIISManager::add_entry:       0.00u       0.00s   0.000330w     18 calls
DIISManager::extrapolate:       0.00u       0.00s   0.000505w     17 calls
DIISManager::extrapolate: bMatrix setup:       0.00u       0.00s   0.000150w     17 calls
DIISManager::extrapolate: bMatrix pseudoinverse:       0.00u       0.00s   0.000182w     17 calls
DIISManager::extrapolate: form new data:       0.00u       0.00s   0.000132w     17 calls
HF: Form G  :       0.00u       0.00s   0.002687w     10 calls
HF: Form F  :       0.00u       0.00s   0.000016w     10 calls
HF: DIIS    :       0.00u       0.00s   0.000794w     10 calls
HF: Form C  :       0.00u       0.00s   0.000601w     10 calls
HF: Form D  :       0.00u       0.00s   0.000020w     10 calls
DFMP2 Singles:       0.00u       0.00s 0.00002300w      1 call
DFMP2 Aia   :       0.01u       0.00s 0.01525300w      1 call
DFMP2 (A|mn):       0.00u       0.00s 0.00288800w      1 call
DFMP2 (A|mn)C_mi:       0.00u       0.00s 0.00003700w      1 call
DFMP2 (A|mi)C_na:       0.00u       0.00s 0.00002700w      1 call
DFMP2 Aia Write:       0.00u       0.00s 0.00003600w      1 call
DFMP2 Qia   :       0.01u       0.00s 0.00833900w      1 call
DFMP2 Metric:       0.01u       0.00s 0.00785600w      1 call
DFMP2 Aia Read:       0.00u       0.00s 0.00010200w      1 call
DFMP2 (Q|A)(A|ia):       0.00u       0.00s 0.00005200w      1 call
DFMP2 Qia Write:       0.00u       0.00s 0.00007300w      1 call
DFMP2 Energy:       0.00u       0.00s 0.00019700w      1 call
DFMP2 Qia Read:       0.00u       0.00s   0.000013w      2 calls

***********************************************************

Host: harper-XPS-13-9370

Timers On : Mon Aug 13 13:23:22 2018
Timers Off: Mon Aug 13 13:23:22 2018

Wall Time:        0.00 seconds

JK: (A|mn)  :       0.03u       0.00s   0.025571w      3 calls
JK: (A|Q)^-1/2:       0.03u       0.00s   0.030196w      3 calls
JK: (Q|mn)  :       0.01u       0.00s   0.002375w      3 calls
HF: Form H  :       0.00u       0.00s 0.00037100w      1 call
HF: Form S/X:       0.00u       0.00s 0.00018000w      1 call
HF: Guess   :       0.04u       0.00s 0.04305200w      1 call
SAD Guess   :       0.04u       0.00s 0.04153400w      1 call
JK: D       :       0.00u       0.00s   0.000086w     22 calls
JK: USO2AO  :       0.00u       0.00s   0.000060w     22 calls
JK: JK      :       0.03u       0.00s   0.020754w     22 calls
JK: J       :       0.01u       0.00s   0.002091w     22 calls
JK: J1      :       0.01u       0.00s   0.001135w     31 calls
JK: J2      :       0.00u       0.00s   0.000869w     31 calls
JK: K       :       0.01u       0.00s   0.018118w     22 calls
JK: K1      :       0.01u       0.00s   0.015094w     29 calls
JK: K2      :       0.00u       0.00s   0.002934w     29 calls
JK: AO2USO  :       0.00u       0.00s   0.000013w     22 calls
DIISManager::add_entry:       0.00u       0.00s   0.000791w     21 calls
DIISManager::extrapolate:       0.00u       0.00s   0.001270w     20 calls
DIISManager::extrapolate: bMatrix setup:       0.00u       0.00s   0.000400w     20 calls
DIISManager::extrapolate: bMatrix pseudoinverse:       0.00u       0.00s   0.000445w     20 calls
DIISManager::extrapolate: form new data:       0.00u       0.00s   0.000365w     20 calls
HF: Form G  :       0.03u       0.00s   0.020522w     13 calls
HF: Form F  :       0.00u       0.00s   0.000071w     13 calls
HF: DIIS    :       0.00u       0.00s   0.002361w     13 calls
HF: Form C  :       0.00u       0.00s   0.002078w     13 calls
HF: Form D  :       0.00u       0.00s   0.000042w     13 calls
DFMP2 Singles:       0.00u       0.00s 0.00004200w      1 call
DFMP2 Aia   :       0.02u       0.00s 0.02374800w      1 call
DFMP2 (A|mn):       0.01u       0.00s 0.00916000w      1 call
DFMP2 (A|mn)C_mi:       0.00u       0.00s 0.00009800w      1 call
DFMP2 (A|mi)C_na:       0.00u       0.00s 0.00009300w      1 call
DFMP2 Aia Write:       0.00u       0.00s 0.00012300w      1 call
DFMP2 Qia   :       0.01u       0.00s 0.01053300w      1 call
DFMP2 Metric:       0.01u       0.00s 0.00978100w      1 call
DFMP2 Aia Read:       0.00u       0.00s 0.00017800w      1 call
DFMP2 (Q|A)(A|ia):       0.00u       0.00s 0.00027900w      1 call
DFMP2 Qia Write:       0.00u       0.00s 0.00015600w      1 call
DFMP2 Energy:       0.00u       0.00s 0.00066700w      1 call
DFMP2 Qia Read:       0.00u       0.00s   0.000040w      2 calls

***********************************************************

Host: harper-XPS-13-9370

Timers On : Mon Aug 13 13:23:22 2018
Timers Off: Mon Aug 13 13:23:25 2018

Wall Time:        3.00 seconds

JK: (A|mn)  :       0.56u       0.00s   0.557619w      3 calls
JK: (A|Q)^-1/2:       0.17u       0.00s   0.181723w      3 calls
JK: (Q|mn)  :       0.13u       0.00s   0.138291w      3 calls
HF: Form H  :       0.00u       0.00s 0.02829800w      1 call
HF: Form S/X:       0.01u       0.00s 0.00402600w      1 call
HF: Guess   :       0.06u       0.00s 0.06018700w      1 call
SAD Guess   :       0.06u       0.00s 0.05480900w      1 call
JK: D       :       0.00u       0.00s   0.000414w     23 calls
JK: USO2AO  :       0.00u       0.00s   0.000137w     23 calls
JK: JK      :       1.11u       0.01s   1.122809w     23 calls
JK: J       :       0.07u       0.01s   0.055617w     23 calls
JK: J1      :       0.04u       0.01s   0.029246w     32 calls
JK: J2      :       0.03u       0.00s   0.025747w     32 calls
JK: K       :       1.03u       0.00s   1.045971w     23 calls
JK: K1      :       0.85u       0.00s   0.854899w     30 calls
JK: K2      :       0.18u       0.00s   0.190853w     30 calls
JK: AO2USO  :       0.00u       0.00s   0.000016w     23 calls
DIISManager::add_entry:       0.00u       0.00s   0.002171w     22 calls
DIISManager::extrapolate:       0.00u       0.00s   0.005004w     21 calls
DIISManager::extrapolate: bMatrix setup:       0.00u       0.00s   0.002107w     21 calls
DIISManager::extrapolate: bMatrix pseudoinverse:       0.00u       0.00s   0.000579w     21 calls
DIISManager::extrapolate: form new data:       0.00u       0.00s   0.002234w     21 calls
HF: Form G  :       1.11u       0.01s   1.123579w     14 calls
HF: Form F  :       0.00u       0.00s   0.000358w     14 calls
HF: DIIS    :       0.00u       0.00s   0.012405w     14 calls
HF: Form C  :       0.04u       0.00s   0.022105w     14 calls
HF: Form D  :       0.00u       0.00s   0.000354w     14 calls
DFMP2 Singles:       0.00u       0.00s 0.00020500w      1 call
DFMP2 Aia   :       0.25u       0.01s 0.25939200w      1 call
DFMP2 (A|mn):       0.20u       0.00s 0.19940700w      1 call
DFMP2 (A|mn)C_mi:       0.01u       0.00s 0.01171400w      1 call
DFMP2 (A|mi)C_na:       0.01u       0.00s 0.00651500w      1 call
DFMP2 Aia Write:       0.00u       0.00s 0.00298000w      1 call
DFMP2 Qia   :       0.07u       0.01s 0.07186600w      1 call
DFMP2 Metric:       0.05u       0.00s 0.04791500w      1 call
DFMP2 Aia Read:       0.00u       0.00s 0.00157000w      1 call
DFMP2 (Q|A)(A|ia):       0.02u       0.00s 0.01807100w      1 call
DFMP2 Qia Write:       0.00u       0.01s 0.00347300w      1 call
DFMP2 Energy:       0.04u       0.00s 0.05284800w      1 call
DFMP2 Qia Read:       0.00u       0.00s   0.001805w      2 calls

***********************************************************

Host: harper-XPS-13-9370

Timers On : Mon Aug 13 13:23:25 2018
Timers Off: Mon Aug 13 13:23:26 2018

Wall Time:        1.00 seconds

[...]
JK: USO2AO  :       0.00u       0.00s   0.000032w     17 calls
JK: JK      :       0.00u       0.00s   0.002848w     17 calls
JK: J       :       0.00u       0.00s   0.000268w     17 calls
JK: J1      :       0.00u       0.00s   0.000135w     26 calls
JK: J2      :       0.00u       0.00s   0.000085w     26 calls
JK: K       :       0.00u       0.00s   0.002420w     17 calls
JK: K1      :       0.00u       0.00s   0.001916w     24 calls
JK: K2      :       0.00u       0.00s   0.000461w     24 calls
JK: AO2USO  :       0.00u       0.00s   0.000009w     17 calls
DIISManager::add_entry:       0.00u       0.00s   0.000436w     16 calls
DIISManager::extrapolate:       0.00u       0.00s   0.000440w     15 calls
DIISManager::extrapolate: bMatrix setup:       0.00u       0.00s   0.000114w     15 calls
DIISManager::extrapolate: bMatrix pseudoinverse:       0.00u       0.00s   0.000170w     15 calls
DIISManager::extrapolate: form new data:       0.00u       0.00s   0.000114w     15 calls
HF: Form G  :       0.00u       0.00s   0.002503w      8 calls
HF: Form F  :       0.00u       0.00s   0.000018w      8 calls
HF: DIIS    :       0.00u       0.00s   0.000813w      8 calls
HF: Form C  :       0.00u       0.00s   0.000522w      8 calls
HF: Form D  :       0.00u       0.00s   0.000018w      8 calls

***********************************************************

Host: harper-XPS-13-9370

Timers On : Mon Aug 13 16:36:37 2018
Timers Off: Mon Aug 13 16:36:37 2018

Wall Time:        0.00 seconds

JK: (A|mn)  :       0.01u       0.00s   0.009379w      3 calls
JK: (A|Q)^-1/2:       0.03u       0.00s   0.026950w      3 calls
JK: (Q|mn)  :       0.00u       0.00s   0.000529w      3 calls
HF: Form H  :       0.00u       0.00s 0.00035400w      1 call
HF: Form S/X:       0.00u       0.00s 0.00009200w      1 call
HF: Guess   :       0.05u       0.00s 0.04592900w      1 call
SAD Guess   :       0.05u       0.00s 0.04420300w      1 call
JK: D       :       0.00u       0.00s   0.000049w     17 calls
JK: USO2AO  :       0.00u       0.00s   0.000028w     17 calls
JK: JK      :       0.00u       0.00s   0.002737w     17 calls
JK: J       :       0.00u       0.00s   0.000238w     17 calls
JK: J1      :       0.00u       0.00s   0.000108w     26 calls
JK: J2      :       0.00u       0.00s   0.000082w     26 calls
JK: K       :       0.00u       0.00s   0.002343w     17 calls
JK: K1      :       0.00u       0.00s   0.001860w     24 calls
JK: K2      :       0.00u       0.00s   0.000439w     24 calls
JK: AO2USO  :       0.00u       0.00s   0.000010w     17 calls
DIISManager::add_entry:       0.00u       0.00s   0.000302w     16 calls
DIISManager::extrapolate:       0.00u       0.00s   0.000426w     15 calls
DIISManager::extrapolate: bMatrix setup:       0.00u       0.00s   0.000112w     15 calls
DIISManager::extrapolate: bMatrix pseudoinverse:       0.00u       0.00s   0.000164w     15 calls
DIISManager::extrapolate: form new data:       0.00u       0.00s   0.000108w     15 calls
HF: Form G  :       0.00u       0.00s   0.002344w      8 calls
HF: Form F  :       0.00u       0.00s   0.000014w      8 calls
HF: DIIS    :       0.00u       0.00s   0.000641w      8 calls
HF: Form C  :       0.00u       0.00s   0.000521w      8 calls
HF: Form D  :       0.00u       0.00s   0.000015w      8 calls

***********************************************************

Host: harper-XPS-13-9370

Timers On : Mon Aug 13 16:36:37 2018
Timers Off: Mon Aug 13 16:36:38 2018

Wall Time:        1.00 seconds

JK: (A|mn)  :       0.01u       0.00s   0.009645w      3 calls
JK: (A|Q)^-1/2:       0.03u       0.00s   0.027965w      3 calls
JK: (Q|mn)  :       0.00u       0.00s   0.000549w      3 calls
HF: Form H  :       0.00u       0.00s 0.00036500w      1 call
HF: Form S/X:       0.00u       0.00s 0.00009800w      1 call
HF: Guess   :       0.05u       0.00s 0.04688800w      1 call
SAD Guess   :       0.05u       0.00s 0.04511500w      1 call
JK: D       :       0.00u       0.00s   0.000064w     17 calls
JK: USO2AO  :       0.00u       0.00s   0.000035w     17 calls
JK: JK      :       0.00u       0.00s   0.002985w     17 calls
JK: J       :       0.00u       0.00s   0.000292w     17 calls
JK: J1      :       0.00u       0.00s   0.000145w     26 calls
JK: J2      :       0.00u       0.00s   0.000091w     26 calls
JK: K       :       0.00u       0.00s   0.002509w     17 calls
JK: K1      :       0.00u       0.00s   0.001982w     24 calls
JK: K2      :       0.00u       0.00s   0.000478w     24 calls
JK: AO2USO  :       0.00u       0.00s   0.000011w     17 calls
DIISManager::add_entry:       0.00u       0.00s   0.000392w     16 calls
DIISManager::extrapolate:       0.00u       0.00s   0.000499w     15 calls
DIISManager::extrapolate: bMatrix setup:       0.00u       0.00s   0.000120w     15 calls
DIISManager::extrapolate: bMatrix pseudoinverse:       0.00u       0.00s   0.000203w     15 calls
DIISManager::extrapolate: form new data:       0.00u       0.00s   0.000124w     15 calls
HF: Form G  :       0.00u       0.00s   0.002599w      8 calls
HF: Form F  :       0.00u       0.00s   0.000022w      8 calls
HF: DIIS    :       0.00u       0.00s   0.000812w      8 calls
HF: Form C  :       0.00u       0.00s   0.000566w      8 calls
HF: Form D  :       0.00u       0.00s   0.000019w      8 calls

***********************************************************

Host: harper-XPS-13-9370

Timers On : Mon Aug 13 16:36:38 2018
Timers Off: Mon Aug 13 16:36:38 2018

Wall Time:        0.00 seconds

JK: (A|mn)  :       0.10u       0.00s   0.094371w      3 calls
JK: (A|Q)^-1/2:       0.05u       0.00s   0.054295w      3 calls
JK: (Q|mn)  :       0.01u       0.00s   0.013031w      3 calls
HF: Form H  :       0.00u       0.00s 0.00139800w      1 call
HF: Form S/X:       0.00u       0.00s 0.00042500w      1 call
HF: Guess   :       0.05u       0.01s 0.04721500w      1 call
SAD Guess   :       0.05u       0.01s 0.04540500w      1 call
JK: D       :       0.00u       0.00s   0.000102w     19 calls
JK: USO2AO  :       0.00u       0.00s   0.000062w     19 calls
JK: JK      :       0.06u       0.00s   0.061827w     19 calls
JK: J       :       0.00u       0.00s   0.005390w     19 calls
JK: J1      :       0.00u       0.00s   0.002479w     28 calls
JK: J2      :       0.00u       0.00s   0.002770w     28 calls
JK: K       :       0.06u       0.00s   0.054614w     19 calls
JK: K1      :       0.03u       0.00s   0.044614w     26 calls
JK: K2      :       0.03u       0.00s   0.009906w     26 calls
JK: AO2USO  :       0.00u       0.00s   0.000014w     19 calls
DIISManager::add_entry:       0.01u       0.00s   0.000885w     18 calls
DIISManager::extrapolate:       0.00u       0.00s   0.001241w     17 calls
DIISManager::extrapolate: bMatrix setup:       0.00u       0.00s   0.000402w     17 calls
DIISManager::extrapolate: bMatrix pseudoinverse:       0.00u       0.00s   0.000362w     17 calls
DIISManager::extrapolate: form new data:       0.00u       0.00s   0.000422w     17 calls
HF: Form G  :       0.06u       0.00s   0.061681w     10 calls
HF: Form F  :       0.00u       0.00s   0.000106w     10 calls
HF: DIIS    :       0.01u       0.00s   0.002690w     10 calls
HF: Form C  :       0.00u       0.00s   0.003654w     10 calls
HF: Form D  :       0.00u       0.00s   0.000063w     10 calls

***********************************************************

Host: harper-XPS-13-9370

Timers On : Mon Aug 13 16:36:39 2018
Timers Off: Mon Aug 13 16:36:39 2018

Wall Time:        0.00 seconds

JK: (A|mn)  :       0.01u       0.00s   0.009231w      3 calls
JK: (A|Q)^-1/2:       0.03u       0.00s   0.026716w      3 calls
JK: (Q|mn)  :       0.00u       0.00s   0.000515w      3 calls
HF: Form H  :       0.00u       0.00s 0.00033100w      1 call
HF: Form S/X:       0.00u       0.00s 0.00009200w      1 call
HF: Guess   :       0.05u       0.00s 0.04553800w      1 call
SAD Guess   :       0.05u       0.00s 0.04386900w      1 call
JK: D       :       0.00u       0.00s   0.000053w     17 calls
JK: USO2AO  :       0.00u       0.00s   0.000032w     17 calls
JK: JK      :       0.00u       0.00s   0.002784w     17 calls
JK: J       :       0.00u       0.00s   0.000247w     17 calls
JK: J1      :       0.00u       0.00s   0.000117w     26 calls
JK: J2      :       0.00u       0.00s   0.000081w     26 calls
JK: K       :       0.00u       0.00s   0.002384w     17 calls
JK: K1      :       0.00u       0.00s   0.001908w     24 calls
JK: K2      :       0.00u       0.00s   0.000432w     24 calls
JK: AO2USO  :       0.00u       0.00s   0.000011w     17 calls
DIISManager::add_entry:       0.00u       0.00s   0.000321w     16 calls
DIISManager::extrapolate:       0.00u       0.00s   0.000409w     15 calls
DIISManager::extrapolate: bMatrix setup:       0.00u       0.00s   0.000099w     15 calls
DIISManager::extrapolate: bMatrix pseudoinverse:       0.00u       0.00s   0.000160w     15 calls
DIISManager::extrapolate: form new data:       0.00u       0.00s   0.000106w     15 calls
HF: Form G  :       0.00u       0.00s   0.002388w      8 calls
HF: Form F  :       0.00u       0.00s   0.000010w      8 calls
HF: DIIS    :       0.00u       0.00s   0.000646w      8 calls
HF: Form C  :       0.00u       0.00s   0.000518w      8 calls
HF: Form D  :       0.00u       0.00s   0.000017w      8 calls

***********************************************************

Host: harper-XPS-13-9370

Timers On : Mon Aug 13 16:36:39 2018
Timers Off: Mon Aug 13 16:36:40 2018

Wall Time:        1.00 seconds

JK: (A|mn)  :       0.02u       0.00s   0.011972w      3 calls
JK: (A|Q)^-1/2:       0.02u       0.00s   0.032770w      3 calls
JK: (Q|mn)  :       0.00u       0.00s   0.000652w      3 calls
HF: Form H  :       0.00u       0.01s 0.00045100w      1 call
HF: Form S/X:       0.00u       0.00s 0.00011600w      1 call
HF: Guess   :       0.06u       0.00s 0.05563300w      1 call
SAD Guess   :       0.06u       0.00s 0.05354900w      1 call
JK: D       :       0.00u       0.00s   0.000072w     17 calls
JK: USO2AO  :       0.00u       0.00s   0.000039w     17 calls
JK: JK      :       0.00u       0.00s   0.003243w     17 calls
JK: J       :       0.00u       0.00s   0.000295w     17 calls
JK: J1      :       0.00u       0.00s   0.000135w     26 calls
JK: J2      :       0.00u       0.00s   0.000107w     26 calls
JK: K       :       0.00u       0.00s   0.002747w     17 calls
JK: K1      :       0.00u       0.00s   0.002174w     24 calls
JK: K2      :       0.00u       0.00s   0.000520w     24 calls
JK: AO2USO  :       0.00u       0.00s   0.000012w     17 calls
DIISManager::add_entry:       0.00u       0.00s   0.000376w     16 calls
DIISManager::extrapolate:       0.01u       0.00s   0.000508w     15 calls
DIISManager::extrapolate: bMatrix setup:       0.01u       0.00s   0.000124w     15 calls
DIISManager::extrapolate: bMatrix pseudoinverse:       0.00u       0.00s   0.000197w     15 calls
DIISManager::extrapolate: form new data:       0.00u       0.00s   0.000136w     15 calls
HF: Form G  :       0.00u       0.00s   0.002779w      8 calls
HF: Form F  :       0.00u       0.00s   0.000018w      8 calls
HF: DIIS    :       0.00u       0.00s   0.000775w      8 calls
HF: Form C  :       0.00u       0.00s   0.000611w      8 calls
HF: Form D  :       0.00u       0.00s   0.000019w      8 calls

***********************************************************

Host: harper-XPS-13-9370

Timers On : Mon Aug 13 16:36:40 2018
Timers Off: Mon Aug 13 16:36:40 2018

Wall Time:        0.00 seconds

JK: (A|mn)  :       0.09u       0.00s   0.094113w      3 calls
JK: (A|Q)^-1/2:       0.06u       0.00s   0.052895w      3 calls
JK: (Q|mn)  :       0.02u       0.00s   0.015214w      3 calls
HF: Form H  :       0.00u       0.00s 0.00052800w      1 call
HF: Form S/X:       0.00u       0.00s 0.00045700w      1 call
HF: Guess   :       0.05u       0.00s 0.04771400w      1 call
SAD Guess   :       0.05u       0.00s 0.04572500w      1 call
JK: D       :       0.00u       0.00s   0.000108w     19 calls
JK: USO2AO  :       0.00u       0.00s   0.000057w     19 calls
JK: JK      :       0.05u       0.01s   0.055635w     19 calls
JK: J       :       0.00u       0.00s   0.003968w     19 calls
JK: J1      :       0.00u       0.00s   0.001901w     28 calls
JK: J2      :       0.00u       0.00s   0.001951w     28 calls
JK: K       :       0.05u       0.00s   0.049966w     19 calls
JK: K1      :       0.04u       0.00s   0.040693w     26 calls
JK: K2      :       0.01u       0.00s   0.009196w     26 calls
JK: AO2USO  :       0.00u       0.00s   0.000012w     19 calls
DIISManager::add_entry:       0.00u       0.00s   0.000824w     18 calls
DIISManager::extrapolate:       0.00u       0.00s   0.001097w     17 calls
DIISManager::extrapolate: bMatrix setup:       0.00u       0.00s   0.000364w     17 calls
DIISManager::extrapolate: bMatrix pseudoinverse:       0.00u       0.00s   0.000297w     17 calls
DIISManager::extrapolate: form new data:       0.00u       0.00s   0.000380w     17 calls
HF: Form G  :       0.05u       0.01s   0.055446w     10 calls
HF: Form F  :       0.00u       0.00s   0.000080w     10 calls
HF: DIIS    :       0.00u       0.00s   0.002433w     10 calls
HF: Form C  :       0.01u       0.00s   0.003524w     10 calls
HF: Form D  :       0.00u       0.00s   0.000060w     10 calls

***********************************************************

Host: harper-XPS-13-9370

Timers On : Mon Aug 13 16:36:41 2018
Timers Off: Mon Aug 13 16:36:42 2018

Wall Time:        1.00 seconds

JK: (A|mn)  :       0.35u       0.00s   0.347827w      3 calls
JK: (A|Q)^-1/2:       0.10u       0.00s   0.133526w      3 calls
JK: (Q|mn)  :       0.07u       0.00s   0.071489w      3 calls
HF: Form H  :       0.00u       0.00s 0.00089000w      1 call
HF: Form S/X:       0.00u       0.00s 0.00090100w      1 call
HF: Guess   :       0.05u       0.00s 0.04847800w      1 call
SAD Guess   :       0.04u       0.00s 0.04663400w      1 call
JK: D       :       0.00u       0.00s   0.000279w     19 calls
JK: USO2AO  :       0.00u       0.00s   0.000095w     19 calls
JK: JK      :       0.44u       0.00s   0.441944w     19 calls
JK: J       :       0.02u       0.00s   0.022396w     19 calls
JK: J1      :       0.01u       0.00s   0.011232w     28 calls
JK: J2      :       0.01u       0.00s   0.010822w     28 calls
JK: K       :       0.41u       0.00s   0.410903w     19 calls
JK: K1      :       0.33u       0.00s   0.334556w     26 calls
JK: K2      :       0.08u       0.00s   0.076198w     26 calls
JK: AO2USO  :       0.00u       0.00s   0.000017w     19 calls
DIISManager::add_entry:       0.00u       0.00s   0.001540w     18 calls
DIISManager::extrapolate:       0.00u       0.00s   0.002440w     17 calls
DIISManager::extrapolate: bMatrix setup:       0.00u       0.00s   0.000901w     17 calls
DIISManager::extrapolate: bMatrix pseudoinverse:       0.00u       0.00s   0.000423w     17 calls
DIISManager::extrapolate: form new data:       0.00u       0.00s   0.001046w     17 calls
HF: Form G  :       0.44u       0.00s   0.442116w     10 calls
HF: Form F  :       0.00u       0.00s   0.000202w     10 calls
HF: DIIS    :       0.02u       0.00s   0.006519w     10 calls
HF: Form C  :       0.00u       0.00s   0.012113w     10 calls
HF: Form D  :       0.00u       0.00s   0.000207w     10 calls

***********************************************************

Host: harper-XPS-13-9370

Timers On : Mon Aug 13 16:36:42 2018
Timers Off: Mon Aug 13 16:36:43 2018

Wall Time:        1.00 seconds

JK: (A|mn)  :       0.13u       0.00s   0.128344w      3 calls
JK: (A|Q)^-1/2:       0.07u       0.00s   0.080421w      3 calls
JK: (Q|mn)  :       0.01u       0.00s   0.017160w      3 calls
HF: Form H  :       0.00u       0.00s 0.00143200w      1 call
HF: Form S/X:       0.00u       0.00s 0.00045300w      1 call
HF: Guess   :       0.05u       0.00s 0.04628600w      1 call
SAD Guess   :       0.05u       0.00s 0.04453600w      1 call
JK: D       :       0.00u       0.00s   0.000090w     18 calls
JK: USO2AO  :       0.00u       0.00s   0.000051w     18 calls
JK: JK      :       0.07u       0.00s   0.071525w     18 calls
JK: J       :       0.02u       0.00s   0.005410w     18 calls
JK: J1      :       0.00u       0.00s   0.002464w     27 calls
JK: J2      :       0.02u       0.00s   0.002824w     27 calls
JK: K       :       0.05u       0.00s   0.064027w     18 calls
JK: K1      :       0.03u       0.00s   0.052306w     25 calls
JK: K2      :       0.02u       0.00s   0.011635w     25 calls
JK: AO2USO  :       0.00u       0.00s   0.000015w     18 calls
DIISManager::add_entry:       0.00u       0.00s   0.000829w     17 calls
DIISManager::extrapolate:       0.00u       0.00s   0.001063w     16 calls
DIISManager::extrapolate: bMatrix setup:       0.00u       0.00s   0.000331w     16 calls
DIISManager::extrapolate: bMatrix pseudoinverse:       0.00u       0.00s   0.000307w     16 calls
DIISManager::extrapolate: form new data:       0.00u       0.00s   0.000368w     16 calls
HF: Form G  :       0.07u       0.00s   0.071369w      9 calls
HF: Form F  :       0.00u       0.00s   0.000094w      9 calls
HF: DIIS    :       0.00u       0.00s   0.002483w      9 calls
HF: Form C  :       0.00u       0.00s   0.003643w      9 calls
HF: Form D  :       0.00u       0.00s   0.000059w      9 calls

***********************************************************

Host: harper-XPS-13-9370

Timers On : Mon Aug 13 16:36:43 2018
Timers Off: Mon Aug 13 16:36:45 2018

Wall Time:        2.00 seconds

JK: (A|mn)  :       0.46u       0.00s   0.451823w      3 calls
JK: (A|Q)^-1/2:       0.15u       0.00s   0.170786w      3 calls
JK: (Q|mn)  :       0.09u       0.01s   0.086913w      3 calls
HF: Form H  :       0.00u       0.00s 0.02777000w      1 call
HF: Form S/X:       0.00u       0.00s 0.00107300w      1 call
HF: Guess   :       0.05u       0.00s 0.05470100w      1 call
SAD Guess   :       0.05u       0.00s 0.05255700w      1 call
JK: D       :       0.00u       0.00s   0.000341w     19 calls
JK: USO2AO  :       0.00u       0.00s   0.000145w     19 calls
JK: JK      :       0.62u       0.01s   0.618979w     19 calls
JK: J       :       0.03u       0.00s   0.030647w     19 calls
JK: J1      :       0.02u       0.00s   0.016825w     28 calls
JK: J2      :       0.01u       0.00s   0.013433w     28 calls
JK: K       :       0.59u       0.00s   0.578145w     19 calls
JK: K1      :       0.48u       0.00s   0.480307w     26 calls
JK: K2      :       0.11u       0.00s   0.097635w     26 calls
JK: AO2USO  :       0.00u       0.00s   0.000018w     19 calls
DIISManager::add_entry:       0.00u       0.00s   0.001639w     18 calls
DIISManager::extrapolate:       0.00u       0.00s   0.002498w     17 calls
DIISManager::extrapolate: bMatrix setup:       0.00u       0.00s   0.000913w     17 calls
DIISManager::extrapolate: bMatrix pseudoinverse:       0.00u       0.00s   0.000432w     17 calls
DIISManager::extrapolate: form new data:       0.00u       0.00s   0.001081w     17 calls
HF: Form G  :       0.62u       0.01s   0.619346w     10 calls
HF: Form F  :       0.00u       0.00s   0.000249w     10 calls
HF: DIIS    :       0.00u       0.00s   0.007135w     10 calls
HF: Form C  :       0.01u       0.00s   0.014212w     10 calls
HF: Form D  :       0.00u       0.00s   0.000281w     10 calls

***********************************************************

Host: harper-XPS-13-9370

Timers On : Mon Aug 13 16:35:08 2018
Timers Off: Mon Aug 13 16:36:45 2018

Wall Time:       97.00 seconds


***********************************************************

Host: harper-XPS-13-9370

Timers On : Wed Aug 15 11:10:49 2018
Timers Off: Wed Aug 15 11:10:49 2018

Wall Time:        0.00 seconds


***********************************************************

Host: harper-XPS-13-9370

Timers On : Wed Aug 15 11:20:57 2018
Timers Off: Wed Aug 15 11:21:00 2018

Wall Time:        3.00 seconds


***********************************************************
