
Host: hrgrimsl-XPS-13-9370

Timers On : Thu Dec  6 16:03:48 2018
Timers Off: Thu Dec  6 16:03:48 2018

Wall Time:        0.00 seconds


***********************************************************
