
Host: hrgrimsl-XPS-13-9370

Timers On : Thu Dec  6 16:03:40 2018
Timers Off: Thu Dec  6 16:03:41 2018

Wall Time:        1.00 seconds


***********************************************************
