
Host: hrgrimsl-XPS-13-9370

Timers On : Thu Dec  6 16:03:56 2018
Timers Off: Thu Dec  6 16:03:57 2018

Wall Time:        1.00 seconds


***********************************************************
