
Host: hrgrimsl-XPS-13-9370

Timers On : Fri Dec  7 10:23:50 2018
Timers Off: Fri Dec  7 10:23:56 2018

Wall Time:        6.00 seconds


***********************************************************
