
Host: hrgrimsl-XPS-13-9370

Timers On : Thu Dec  6 16:08:48 2018
Timers Off: Thu Dec  6 16:08:49 2018

Wall Time:        1.00 seconds


***********************************************************
