
Host: hrgrimsl-XPS-13-9370

Timers On : Thu Dec  6 16:09:02 2018
Timers Off: Thu Dec  6 16:09:03 2018

Wall Time:        1.00 seconds


***********************************************************
