
Host: hrgrimsl-XPS-13-9370

Timers On : Fri Dec  7 10:47:36 2018
Timers Off: Fri Dec  7 10:47:37 2018

Wall Time:        1.00 seconds


***********************************************************
